# vtk DataFile Version 3.0
PFC simulation results
ASCII
DATASET STRUCTURED_POINTS
DIMENSIONS 128 128 1
ORIGIN 0 0 0
SPACING 1 1 1
POINT_DATA 16384
SCALARS psi double
LOOKUP_TABLE default
0.182728
0.463026
0.51373
0.301555
-0.0868191
-0.468898
-0.662196
-0.580371
-0.262257
0.137198
0.415114
0.434055
0.18564
-0.206045
-0.539185
-0.647379
-0.478811
-0.11084
0.276331
0.492515
0.438056
0.136897
-0.27069
-0.587932
-0.668929
-0.479059
-0.102231
0.282372
0.489853
0.426345
0.121258
-0.27944
-0.576041
-0.625473
-0.405424
-0.0225898
0.32662
0.462772
0.317305
-0.0413147
-0.432971
-0.660414
-0.613862
-0.307814
0.121381
0.471941
0.589425
0.430411
0.0679129
-0.322376
-0.54402
-0.493941
-0.211908
0.138222
0.354978
0.317227
0.0465934
-0.304528
-0.538634
-0.530379
-0.285714
0.0711249
0.374722
0.529129
0.552511
0.525998
0.512347
0.506206
0.442805
0.256435
-0.050401
-0.382855
-0.606461
-0.626331
-0.426231
-0.0777252
0.280863
0.521669
0.59984
0.553512
0.460005
0.391844
0.385228
0.429528
0.482112
0.497818
0.451581
0.34216
0.184762
0.00359812
-0.17287
-0.313247
-0.381769
-0.343311
-0.185117
0.0553477
0.290023
0.42002
0.382153
0.177694
-0.114496
-0.362388
-0.449166
-0.33062
-0.052033
0.268977
0.505653
0.596569
0.563161
0.476202
0.411822
0.410902
0.456405
0.48792
0.45083
0.346889
0.24073
0.2121
0.294252
0.444488
0.564954
0.555438
0.364363
0.0294181
-0.316036
-0.511505
-0.462795
-0.187774
0.337574
0.535388
0.547386
0.342377
-0.00977505
-0.35122
-0.51833
-0.432516
-0.134048
0.229303
0.471911
0.471263
0.221655
-0.160239
-0.482862
-0.586583
-0.422528
-0.0683563
0.300362
0.501625
0.441823
0.146595
-0.246378
-0.546329
-0.613872
-0.420168
-0.0527781
0.31232
0.499927
0.425481
0.123604
-0.259993
-0.532006
-0.558668
-0.326686
0.0522193
0.386928
0.510979
0.364439
0.0137626
-0.369688
-0.595859
-0.557433
-0.268791
0.137425
0.467088
0.571991
0.410806
0.0560837
-0.319331
-0.52332
-0.456339
-0.160981
0.197586
0.420396
0.389493
0.12415
-0.229708
-0.476644
-0.486126
-0.256497
0.0940664
0.40222
0.568244
0.601726
0.574897
0.547485
0.520113
0.439924
0.252597
-0.0342471
-0.330091
-0.512112
-0.499072
-0.288915
0.035063
0.333282
0.486255
0.459861
0.30938
0.139399
0.0470455
0.0763117
0.204899
0.364436
0.48389
0.52731
0.497872
0.417416
0.307737
0.185312
0.0676524
-0.01745
-0.0336645
0.0427539
0.194342
0.354584
0.433779
0.360009
0.118538
-0.219462
-0.51587
-0.640356
-0.533771
-0.230621
0.143738
0.430564
0.530993
0.447587
0.265165
0.105603
0.0641007
0.157997
0.324827
0.469742
0.532511
0.522255
0.493855
0.496978
0.540309
0.587048
0.575669
0.455777
0.231703
-0.0153111
-0.165427
-0.136051
0.0654853
0.487555
0.593965
0.588432
0.441676
0.191881
-0.0538853
-0.172844
-0.101043
0.128642
0.399366
0.572282
0.558329
0.352967
0.0435208
-0.219687
-0.304232
-0.168528
0.118747
0.411771
0.567503
0.515249
0.276408
-0.0402228
-0.280442
-0.327473
-0.159719
0.141871
0.430078
0.569209
0.498624
0.249691
-0.0599351
-0.273279
-0.28042
-0.0760199
0.238606
0.506865
0.602488
0.483206
0.200216
-0.113866
-0.304273
-0.278351
-0.0493046
0.269626
0.522383
0.594387
0.455383
0.165214
-0.135383
-0.287938
-0.210374
0.0552207
0.364396
0.55395
0.532265
0.315863
0.0208889
-0.191675
-0.209565
-0.0327816
0.233184
0.449883
0.539965
0.522984
0.473503
0.451269
0.455617
0.431913
0.323233
0.12836
-0.0808718
-0.201808
-0.166818
0.0162466
0.26119
0.441056
0.455384
0.28492
0.00588312
-0.247189
-0.356992
-0.279419
-0.0535611
0.220974
0.440111
0.554122
0.57665
0.549888
0.507978
0.462111
0.409503
0.354049
0.317296
0.326169
0.38646
0.46582
0.500672
0.42335
0.202697
-0.115971
-0.413779
-0.561827
-0.489297
-0.21785
0.132755
0.396272
0.454795
0.295164
0.0101099
-0.243676
-0.330445
-0.206101
0.0687792
0.365581
0.565441
0.626245
0.582462
0.50298
0.450149
0.449282
0.476723
0.479341
0.420258
0.317576
0.236979
0.241321
0.341963
0.511713
0.541328
0.549261
0.503934
0.40214
0.286726
0.225503
0.262509
0.38494
0.529888
0.62216
0.611315
0.489783
0.302527
0.138219
0.0829403
0.166273
0.343057
0.521183
0.615256
0.584116
0.439382
0.244774
0.0959617
0.0698839
0.179754
0.368455
0.541819
0.620431
0.571587
0.415282
0.222665
0.0919035
0.0940325
0.229451
0.428233
0.592846
0.651218
0.580715
0.409731
0.214722
0.0917935
0.102914
0.239089
0.426126
0.569062
0.602303
0.510056
0.32937
0.1474
0.0652202
0.134814
0.322123
0.526958
0.645843
0.626925
0.48602
0.298768
0.167943
0.162686
0.271061
0.407093
0.472439
0.428772
0.32162
0.239282
0.243294
0.323179
0.407785
0.423686
0.35278
0.244909
0.181179
0.217713
0.34653
0.493697
0.554637
0.447543
0.163781
-0.205117
-0.505403
-0.61291
-0.491599
-0.198166
0.140907
0.395252
0.507717
0.509769
0.476319
0.468613
0.50064
0.544568
0.565355
0.553223
0.527875
0.516952
0.529384
0.540545
0.499198
0.360668
0.132495
-0.107671
-0.250094
-0.218256
-0.0176309
0.252429
0.443385
0.438416
0.211712
-0.148716
-0.472615
-0.60386
-0.480858
-0.155544
0.226637
0.5028
0.587232
0.49696
0.320569
0.172546
0.136379
0.221726
0.3676
0.489816
0.540341
0.530179
0.502486
0.493217
0.342782
0.315399
0.363447
0.445665
0.509071
0.528506
0.516629
0.500384
0.496821
0.508404
0.527965
0.541044
0.530265
0.490419
0.440986
0.414049
0.426808
0.469385
0.517147
0.548819
0.552016
0.522413
0.470252
0.423471
0.410879
0.439188
0.489467
0.534489
0.555922
0.546358
0.50663
0.451478
0.410317
0.4085
0.446286
0.500334
0.544465
0.564584
0.555858
0.518931
0.467158
0.427534
0.422064
0.44873
0.484887
0.507583
0.506241
0.479506
0.433937
0.391206
0.383005
0.425516
0.499906
0.564075
0.584456
0.55529
0.49599
0.441173
0.425697
0.460475
0.51341
0.518621
0.421002
0.229118
0.02638
-0.0796036
-0.0290233
0.15016
0.359801
0.500163
0.534565
0.497899
0.459301
0.473559
0.545167
0.621782
0.619656
0.467445
0.157309
-0.220272
-0.512125
-0.59758
-0.45006
-0.142625
0.180224
0.378404
0.399891
0.300472
0.195454
0.182025
0.281891
0.438899
0.567244
0.612026
0.57657
0.507862
0.460878
0.460129
0.480365
0.466529
0.383525
0.254951
0.154037
0.152408
0.265603
0.432011
0.541264
0.49208
0.246962
-0.128009
-0.47598
-0.638762
-0.542748
-0.227918
0.159993
0.438868
0.495338
0.331368
0.0508802
-0.188586
-0.258676
-0.124749
0.14593
0.425462
0.602684
0.63962
0.565093
0.442473
0.0153405
-0.0530602
0.0463095
0.258096
0.476988
0.611546
0.626954
0.540962
0.405412
0.289633
0.251788
0.307648
0.422279
0.533893
0.592945
0.582515
0.512839
0.414289
0.33264
0.310434
0.360531
0.45583
0.547222
0.594769
0.582911
0.517088
0.422361
0.341731
0.317273
0.362514
0.451569
0.536781
0.578843
0.561338
0.489291
0.390319
0.311696
0.297224
0.357486
0.460862
0.554681
0.59739
0.572749
0.487555
0.372511
0.278197
0.250261
0.300064
0.398114
0.496019
0.555895
0.560469
0.508362
0.416381
0.322435
0.270735
0.288311
0.37181
0.488924
0.589766
0.618434
0.524602
0.292957
-0.0185341
-0.286487
-0.390753
-0.281824
-0.00803139
0.304575
0.528739
0.612074
0.584723
0.519696
0.487292
0.516174
0.575865
0.592917
0.493967
0.259748
-0.038953
-0.26913
-0.320656
-0.173107
0.092023
0.328103
0.403303
0.278811
0.0348555
-0.174614
-0.21943
-0.0701653
0.192135
0.429361
0.534011
0.486555
0.351706
0.234183
0.214293
0.29849
0.422856
0.506991
0.51566
0.477983
0.454131
0.483906
0.554955
0.606198
0.559365
0.365679
0.0549599
-0.254742
-0.421148
-0.362953
-0.10527
0.221121
0.442886
0.440518
0.204008
-0.15888
-0.467827
-0.570779
-0.417981
-0.0753528
0.30213
0.553616
0.59985
0.45881
0.221249
-0.334962
-0.430134
-0.288802
0.0234227
0.360025
0.572983
0.5885
0.42125
0.159428
-0.0658495
-0.142889
-0.0357808
0.200577
0.449476
0.597354
0.587099
0.428946
0.19517
-0.00181005
-0.0638992
0.0399366
0.257575
0.481165
0.607211
0.583538
0.420227
0.187875
-0.00350907
-0.0591447
0.0486991
0.265334
0.481866
0.595411
0.555319
0.375349
0.132938
-0.056243
-0.0979681
0.0295766
0.264139
0.491003
0.60565
0.559458
0.369778
0.117939
-0.0776748
-0.122824
0.00225506
0.233927
0.459117
0.577356
0.542985
0.370686
0.130865
-0.0720631
-0.148629
-0.0651477
0.144403
0.391259
0.571305
0.605754
0.456574
0.143846
-0.230713
-0.515284
-0.590941
-0.42545
-0.0865107
0.278379
0.523061
0.58613
0.500281
0.35572
0.253649
0.254713
0.346863
0.454971
0.488585
0.40399
0.241196
0.10269
0.0829359
0.20221
0.388242
0.512762
0.462468
0.208777
-0.154376
-0.449296
-0.526837
-0.353245
-0.0241804
0.283955
0.418284
0.336219
0.117253
-0.0872505
-0.144596
-0.0168029
0.227819
0.466094
0.60315
0.623745
0.577081
0.529416
0.521835
0.546196
0.549396
0.470655
0.296164
0.0888509
-0.0436584
-0.0212984
0.151542
0.377894
0.517961
0.463896
0.194487
-0.197225
-0.535609
-0.663898
-0.523245
-0.172688
0.225677
0.486703
0.504708
0.28895
-0.0480095
-0.546195
-0.654493
-0.494015
-0.133773
0.258775
0.500932
0.493037
0.24993
-0.109122
-0.407408
-0.502608
-0.351825
-0.0242973
0.323703
0.529039
0.504882
0.266325
-0.0753886
-0.354597
-0.437535
-0.285913
0.0291896
0.354898
0.536303
0.493461
0.245101
-0.0958031
-0.365377
-0.435054
-0.272232
0.0469729
0.366917
0.533923
0.471769
0.204853
-0.146308
-0.413573
-0.471064
-0.292355
0.040455
0.36758
0.534829
0.468761
0.197722
-0.154456
-0.418553
-0.470581
-0.288375
0.0419139
0.361318
0.52217
0.457641
0.195731
-0.150599
-0.427602
-0.518349
-0.38851
-0.0905625
0.251585
0.496752
0.550866
0.387564
0.0539643
-0.322137
-0.580331
-0.612718
-0.405686
-0.0444314
0.312318
0.515193
0.502455
0.31224
0.0576844
-0.124121
-0.142614
0.00401445
0.233986
0.429372
0.510586
0.483909
0.42434
0.414905
0.486581
0.594136
0.639658
0.527529
0.22896
-0.168806
-0.489785
-0.581633
-0.407742
-0.0672131
0.248944
0.366553
0.228847
-0.0768674
-0.36784
-0.47539
-0.337397
-0.0187406
0.327787
0.554373
0.603174
0.513521
0.379526
0.297023
0.311095
0.392677
0.465555
0.467794
0.401758
0.330373
0.324417
0.405964
0.528017
0.599635
0.534201
0.298264
-0.0483648
-0.362232
-0.497918
-0.390158
-0.0869133
0.261466
0.476468
0.447339
0.176124
-0.217974
-0.522621
-0.631363
-0.476331
-0.125243
0.254148
0.475712
0.434418
0.145706
-0.257551
-0.580974
-0.675197
-0.499532
-0.130677
0.257537
0.479279
0.434928
0.145565
-0.253063
-0.567546
-0.651894
-0.469669
-0.102382
0.274351
0.47875
0.41767
0.118351
-0.278991
-0.581877
-0.650025
-0.453207
-0.0786482
0.294811
0.4876
0.411827
0.100139
-0.302535
-0.602666
-0.663457
-0.459178
-0.0802311
0.293447
0.483814
0.406186
0.0963986
-0.299299
-0.588844
-0.638855
-0.428912
-0.0546567
0.30573
0.484482
0.406955
0.109227
-0.275617
-0.574148
-0.662794
-0.511581
-0.181641
0.191621
0.457886
0.52479
0.378334
0.0780191
-0.248134
-0.452386
-0.443187
-0.222872
0.112558
0.40922
0.532052
0.425349
0.130297
-0.222341
-0.469535
-0.503394
-0.313521
0.0154647
0.34034
0.543017
0.598251
0.564132
0.526225
0.540543
0.598708
0.632073
0.553769
0.322166
-0.00422136
-0.278512
-0.359861
-0.207323
0.0901703
0.355268
0.423227
0.234534
-0.128909
-0.478787
-0.632243
-0.512708
-0.177118
0.209625
0.465356
0.497974
0.33694
0.101932
-0.0608544
-0.0593243
0.0989172
0.322443
0.499903
0.573247
0.562028
0.527939
0.523037
0.556942
0.592352
0.566349
0.431784
0.204223
-0.0253779
-0.140944
-0.076189
0.140394
0.391822
0.533733
0.468575
0.189822
-0.199268
-0.272448
-0.3674
-0.240656
0.0490268
0.356044
0.522193
0.456876
0.172584
-0.210234
-0.511411
-0.591282
-0.414401
-0.0597047
0.303788
0.501168
0.441279
0.147824
-0.244718
-0.546987
-0.618467
-0.428382
-0.0626481
0.303722
0.495124
0.424998
0.124132
-0.266977
-0.558629
-0.615133
-0.411412
-0.0384724
0.326567
0.511534
0.43555
0.132893
-0.255786
-0.543386
-0.59758
-0.395563
-0.0286436
0.328484
0.507724
0.431751
0.1367
-0.238091
-0.510021
-0.552083
-0.347229
0.00924284
0.34764
0.513887
0.443075
0.171716
-0.176828
-0.44356
-0.515944
-0.370934
-0.0718199
0.256297
0.485565
0.545751
0.435037
0.208451
-0.0308794
-0.167768
-0.133112
0.0614408
0.326547
0.534414
0.576889
0.404944
0.0538794
-0.345837
-0.625061
-0.670582
-0.466855
-0.0973362
0.280427
0.521264
0.576424
0.496596
0.383678
0.331082
0.370669
0.456144
0.496489
0.422981
0.249857
0.0771202
0.0214124
0.130269
0.343909
0.526748
0.546386
0.346115
-0.0140714
-0.369818
-0.545599
-0.457736
-0.153927
0.204449
0.427715
0.407204
0.163292
-0.168347
-0.406857
-0.428939
-0.224704
0.108337
0.418876
0.593438
0.612764
0.533116
0.438529
0.396093
0.421492
0.473333
0.486575
0.426929
0.32424
0.252404
0.272226
0.384433
0.524667
0.59957
0.534193
0.310644
-0.00366577
0.0960402
0.0289876
0.107709
0.296075
0.494534
0.594512
0.530394
0.306374
0.00786887
-0.227104
-0.284289
-0.134847
0.150586
0.432756
0.576904
0.515881
0.269937
-0.0537043
-0.300159
-0.350463
-0.181217
0.126801
0.424415
0.572785
0.507938
0.257144
-0.0660416
-0.305254
-0.344944
-0.166575
0.145355
0.441614
0.587865
0.525416
0.283025
-0.0293868
-0.261504
-0.301951
-0.132858
0.164119
0.44569
0.583633
0.522845
0.292669
-0.000528206
-0.213916
-0.244103
-0.0791168
0.198938
0.456383
0.581481
0.532315
0.338874
0.0903521
-0.0985476
-0.145478
-0.0379445
0.169247
0.384774
0.528802
0.56609
0.502873
0.374336
0.240481
0.169638
0.204288
0.335289
0.50305
0.623463
0.619485
0.445243
0.117879
-0.256914
-0.526055
-0.577433
-0.390287
-0.0451076
0.299853
0.492912
0.4739
0.291419
0.0699616
-0.0567273
-0.0204925
0.148668
0.347028
0.466437
0.468806
0.404881
0.365199
0.409211
0.523217
0.629841
0.635777
0.485581
0.205357
-0.0881456
-0.248585
-0.193271
0.0440206
0.324008
0.47731
0.397639
0.0950323
-0.297393
-0.588362
-0.640716
-0.431573
-0.054607
0.317651
0.531561
0.535471
0.381238
0.184
0.0650149
0.0878551
0.229118
0.402538
0.520468
0.551165
0.525877
0.49945
0.507396
0.546614
0.580102
0.557215
0.445489
0.265474
0.424992
0.390443
0.408163
0.476801
0.558448
0.602683
0.570262
0.451959
0.285588
0.149219
0.116624
0.209106
0.381139
0.546726
0.627311
0.584312
0.428456
0.223269
0.0668702
0.0395108
0.155816
0.35673
0.543562
0.632479
0.587922
0.427589
0.220992
0.067914
0.0458875
0.165365
0.364973
0.547806
0.635325
0.596967
0.450954
0.261299
0.119261
0.0964182
0.202927
0.382588
0.546796
0.624381
0.588579
0.457376
0.289603
0.166852
0.150621
0.245502
0.398377
0.533673
0.597821
0.577159
0.490199
0.378746
0.294955
0.274737
0.316862
0.38847
0.451854
0.489192
0.503567
0.501393
0.48376
0.456173
0.435917
0.442733
0.484086
0.547955
0.602813
0.601505
0.496162
0.275111
-0.000536402
-0.213841
-0.262051
-0.11744
0.150823
0.401531
0.496087
0.372159
0.0762803
-0.249273
-0.441713
-0.409639
-0.170538
0.162322
0.441116
0.575823
0.575619
0.514496
0.472854
0.491331
0.551856
0.593396
0.553497
0.417159
0.242645
0.131535
0.157299
0.30918
0.491054
0.574666
0.467662
0.165048
-0.225636
-0.528921
-0.606164
-0.423992
-0.0675001
0.289299
0.477697
0.425862
0.180073
-0.120874
-0.31432
-0.302115
-0.0925086
0.213315
0.479132
0.614997
0.614499
0.53015
0.434065
0.385042
0.401356
0.453477
0.488447
0.473722
0.604273
0.591109
0.538072
0.483906
0.456502
0.463761
0.489222
0.503358
0.48949
0.460389
0.444701
0.458825
0.495344
0.534033
0.556653
0.550841
0.511278
0.449297
0.396567
0.385732
0.424126
0.488884
0.546405
0.573711
0.562658
0.51592
0.450711
0.399406
0.391032
0.428317
0.486375
0.534363
0.555863
0.54889
0.517176
0.471952
0.435669
0.429714
0.455543
0.493335
0.520995
0.530667
0.525478
0.508944
0.485923
0.467934
0.465604
0.475219
0.481313
0.475972
0.469736
0.47899
0.506975
0.541471
0.566139
0.566355
0.528475
0.449576
0.354422
0.291598
0.300755
0.379508
0.482072
0.55244
0.5604
0.512976
0.446434
0.40671
0.418945
0.46334
0.482669
0.426708
0.302168
0.178795
0.140941
0.225905
0.391664
0.532683
0.534904
0.336279
-0.025887
-0.408768
-0.640495
-0.619588
-0.353797
0.0422978
0.395766
0.57827
0.568807
0.435203
0.286472
0.218057
0.263183
0.381174
0.490337
0.526646
0.48914
0.434543
0.427793
0.490735
0.58409
0.628968
0.549585
0.321236
0.00804603
-0.254023
-0.338139
-0.202024
0.0847569
0.367451
0.489054
0.371659
0.0519619
-0.32445
-0.575485
-0.585269
-0.349505
0.0281535
0.379791
0.568548
0.555558
0.392538
0.187246
0.0561348
0.0661985
0.204023
0.391938
0.540766
0.626445
0.610769
0.474486
0.297687
0.171927
0.1582
0.256729
0.411318
0.546578
0.612163
0.597707
0.520588
0.416424
0.332881
0.310401
0.358164
0.447567
0.532031
0.576694
0.569984
0.516806
0.43615
0.362864
0.334808
0.368472
0.445953
0.527149
0.575951
0.574355
0.520298
0.429204
0.338802
0.295713
0.325756
0.41469
0.517208
0.586051
0.593478
0.533855
0.42542
0.313775
0.255505
0.283867
0.385842
0.50974
0.596699
0.607877
0.532184
0.391463
0.244988
0.167732
0.205973
0.346165
0.520411
0.644815
0.658503
0.540309
0.320778
0.0881328
-0.0471147
-0.0173172
0.158979
0.384035
0.539357
0.55334
0.429837
0.242193
0.0988416
0.0809862
0.192586
0.360664
0.487971
0.523528
0.491504
0.458753
0.478026
0.547879
0.60869
0.573142
0.376877
0.0356391
-0.331782
-0.565077
-0.559248
-0.313358
0.0631632
0.394163
0.537367
0.454522
0.21271
-0.0496913
-0.191884
-0.144949
0.060859
0.319492
0.513847
0.58714
0.561726
0.504185
0.477145
0.502286
0.548226
0.550982
0.460598
0.289277
0.11891
0.0497931
0.130528
0.320111
0.504599
0.558284
0.406218
0.0677598
-0.328595
-0.605604
-0.640959
-0.419556
-0.0393316
0.321959
0.50329
0.442999
0.190683
-0.117312
-0.320437
-0.318153
-0.112296
0.200846
0.481542
0.560655
0.515242
0.288389
-0.000911646
-0.20726
-0.231107
-0.0630393
0.216415
0.47789
0.61388
0.582845
0.408664
0.171053
-0.0187337
-0.0706661
0.0384578
0.254369
0.473381
0.598965
0.583375
0.434558
0.214144
0.0221768
-0.0494304
0.0344787
0.233923
0.452969
0.59132
0.59039
0.447038
0.21612
6.76448e-05
-0.0978747
-0.0293455
0.173852
0.413764
0.57822
0.595672
0.455817
0.212928
-0.0242845
-0.141696
-0.0813531
0.12902
0.387605
0.571246
0.596654
0.446933
0.178041
-0.0899953
-0.227289
-0.164841
0.070297
0.364434
0.574308
0.599022
0.415057
0.0882632
-0.236194
-0.403162
-0.333432
-0.0639158
0.264372
0.481093
0.482606
0.275551
-0.0286333
-0.265131
-0.308383
-0.137135
0.161705
0.445141
0.60619
0.631037
0.578704
0.52654
0.521216
0.550305
0.548774
0.4434
0.216332
-0.0582498
-0.250395
-0.258238
-0.0698616
0.221844
0.461129
0.515165
0.338851
-0.00230951
-0.35109
-0.541823
-0.489827
-0.220783
0.141866
0.43727
0.562115
0.515242
0.374692
0.249002
0.218949
0.294018
0.413824
0.494883
0.493307
0.435136
0.389497
0.411722
0.50124
0.598797
0.618107
0.490025
0.209251
-0.134826
-0.393002
-0.445688
-0.267119
0.0573839
0.362687
0.491608
0.373332
0.0508923
-0.327815
-0.580974
-0.592588
-0.356377
0.0251445
0.379913
0.497066
0.405587
0.102388
-0.266397
-0.522594
-0.549313
-0.334663
0.0271986
0.370264
0.543914
0.48372
0.222746
-0.119355
-0.382044
-0.445584
-0.282686
0.0332313
0.354956
0.53668
0.503629
0.270497
-0.0618524
-0.340446
-0.437501
-0.309604
-0.0128761
0.315102
0.522496
0.518822
0.302775
-0.0357717
-0.342348
-0.475425
-0.375419
-0.0857404
0.259384
0.497505
0.522129
0.320515
-0.0223805
-0.348315
-0.504707
-0.420975
-0.133399
0.224533
0.482326
0.521935
0.322576
-0.0325587
-0.379012
-0.55328
-0.476512
-0.182656
0.189741
0.458477
0.494725
0.276516
-0.101544
-0.457668
-0.617797
-0.505929
-0.17413
0.211567
0.453105
0.431512
0.158233
-0.22889
-0.529477
-0.594081
-0.392247
-0.0171663
0.356588
0.5774
0.601966
0.489854
0.351072
0.284187
0.320814
0.41034
0.460493
0.410121
0.280304
0.160129
0.140512
0.249347
0.427627
0.559238
0.533601
0.302538
-0.078933
-0.456578
-0.662488
-0.609142
-0.320535
0.0723574
0.386439
0.491738
0.373541
0.124578
-0.103686
-0.18249
-0.0726938
0.164634
0.409836
0.561667
0.595498
0.556423
0.512505
0.510091
0.548081
0.578593
0.535673
0.384159
0.162031
-0.0276902
-0.0814597
0.036777
0.267308
0.480597
0.546078
0.394256
0.0532522
-0.342309
-0.614251
-0.642611
-0.414554
-0.0301963
0.329132
0.496061
0.365368
0.0270058
-0.369131
-0.638885
-0.664007
-0.433624
-0.0463545
0.318461
0.492865
0.403045
0.0892001
-0.305344
-0.596098
-0.655114
-0.458391
-0.0896545
0.282175
0.486166
0.435014
0.150371
-0.241825
-0.559938
-0.662642
-0.507197
-0.158075
0.226889
0.469046
0.461913
0.207392
-0.183721
-0.529962
-0.674608
-0.55669
-0.224993
0.170802
0.444433
0.472672
0.24282
-0.143896
-0.505985
-0.676355
-0.582002
-0.26231
0.138188
0.429722
0.47969
0.266629
-0.114654
-0.483871
-0.668515
-0.589211
-0.281674
0.111023
0.397821
0.444436
0.233457
-0.130857
-0.462623
-0.593036
-0.455817
-0.112084
0.268958
0.494378
0.451709
0.154485
-0.257908
-0.580544
-0.658937
-0.459129
-0.0755136
0.304795
0.508064
0.473389
0.264956
0.0269796
-0.094871
-0.0342738
0.165927
0.388253
0.522365
0.537362
0.484958
0.446108
0.471384
0.548089
0.606995
0.560769
0.355566
0.0222133
-0.313408
-0.499845
-0.450979
-0.187943
0.161696
0.419334
0.453755
0.245327
-0.10395
-0.415042
-0.532547
-0.40223
-0.084438
0.274864
0.525557
0.600339
0.528787
0.398324
0.30508
0.303991
0.380291
0.464596
0.48538
0.425004
0.334039
0.290769
0.341552
0.466175
0.587469
0.612746
0.47823
0.189159
-0.156344
-0.407031
-0.447549
-0.258056
0.0716875
0.375048
0.555248
0.41636
0.102286
-0.260646
-0.507833
-0.528734
-0.313759
0.0411251
0.367571
0.511534
0.405993
0.0908836
-0.293954
-0.569487
-0.613786
-0.4087
-0.0423532
0.317531
0.507047
0.445711
0.158209
-0.229687
-0.538809
-0.631568
-0.469509
-0.120824
0.256988
0.491046
0.481609
0.233484
-0.144945
-0.477889
-0.613454
-0.493777
-0.169641
0.211908
0.473421
0.500618
0.28355
-0.0820228
-0.424912
-0.58568
-0.494266
-0.19034
0.187284
0.462021
0.513915
0.325241
-0.0181997
-0.354048
-0.524069
-0.453862
-0.177483
0.173999
0.432242
0.483638
0.317414
0.0240783
-0.240527
-0.334851
-0.205565
0.088495
0.40193
0.579093
0.531194
0.267286
-0.100064
-0.394635
-0.473819
-0.302864
0.0282663
0.340776
0.465894
0.3391
0.0288773
-0.296088
-0.461229
-0.381952
-0.0959708
0.259913
0.530705
0.640019
0.612811
0.529955
0.472787
0.478963
0.522495
0.531427
0.43792
0.236571
0.00730944
-0.129822
-0.0939609
0.104231
0.359514
0.523367
0.481999
0.213147
-0.186971
-0.536972
-0.676068
-0.545186
-0.202624
0.194036
0.466768
0.520033
0.373641
0.136097
-0.0499041
-0.0826024
0.0486023
0.267532
0.462588
0.559471
0.560084
0.520122
0.499549
0.524956
0.577005
0.601863
0.540514
0.370457
0.140052
-0.045071
-0.0869117
0.0419707
0.276395
0.488376
0.611197
0.507425
0.279032
0.00888126
-0.179846
-0.195279
-0.0277254
0.242954
0.484407
0.581181
0.483718
0.222728
-0.0917365
-0.313491
-0.339254
-0.157206
0.149756
0.439703
0.584858
0.526829
0.287559
-0.0324801
-0.286766
-0.358061
-0.214865
0.0779521
0.385447
0.571142
0.561473
0.362737
0.05925
-0.209635
-0.317549
-0.215198
0.0501624
0.354308
0.55886
0.580096
0.412594
0.128182
-0.142218
-0.270057
-0.196162
0.0440239
0.336387
0.546807
0.589957
0.455182
0.20371
-0.0475149
-0.17844
-0.129092
0.0732958
0.328673
0.517751
0.565436
0.466863
0.281371
0.109617
0.0457277
0.126608
0.313248
0.5127
0.628026
0.600022
0.425594
0.170409
-0.0447955
-0.108179
0.0137798
0.249414
0.452483
0.481425
0.276866
-0.0963708
-0.466707
-0.654568
-0.571636
-0.251762
0.160664
0.483544
0.60888
0.544673
0.381129
0.237031
0.198709
0.274435
0.396101
0.469694
0.444761
0.350955
0.271882
0.28153
0.391543
0.539506
0.622058
0.548293
0.289179
-0.083956
-0.414682
-0.552706
-0.437362
-0.123391
0.234615
0.458246
0.443799
0.205225
-0.134165
-0.399528
-0.461078
-0.292726
0.0270383
0.354559
0.564209
0.615914
0.550009
0.444913
0.3762
0.380871
0.439726
0.493034
0.484931
0.409374
0.318769
0.284133
0.341285
0.464299
0.580595
0.574844
0.545788
0.44847
0.313294
0.208725
0.196723
0.289667
0.441285
0.574678
0.624188
0.560022
0.397168
0.200054
0.0615892
0.0517184
0.176347
0.374651
0.553764
0.638545
0.598053
0.446634
0.244349
0.0830088
0.0407533
0.137613
0.325173
0.514194
0.624223
0.616686
0.497466
0.314834
0.151207
0.0863912
0.152176
0.314519
0.493716
0.610449
0.621904
0.527449
0.3658
0.209477
0.134737
0.17817
0.315495
0.477204
0.590825
0.616139
0.550581
0.42367
0.292358
0.219552
0.239019
0.336119
0.459615
0.55509
0.592327
0.568788
0.502931
0.428709
0.382303
0.383513
0.428047
0.494123
0.552303
0.57079
0.525722
0.425145
0.321801
0.284893
0.347655
0.474057
0.570217
0.533116
0.30955
-0.053708
-0.409281
-0.592995
-0.519366
-0.219184
0.165895
0.451017
0.517274
0.364295
0.0956142
-0.133893
-0.200524
-0.074334
0.173745
0.417238
0.556195
0.574631
0.527911
0.490497
0.507525
0.569546
0.618672
0.581083
0.413616
0.148756
-0.102535
-0.215032
-0.128508
0.114128
0.381006
0.518928
0.432289
0.128418
-0.270693
-0.581675
-0.665916
-0.489791
-0.128819
0.257508
0.509451
0.555369
0.424799
0.216439
0.0527119
0.0198127
0.126356
0.307626
0.469786
0.550716
0.552174
0.519818
0.500801
0.515463
0.551748
0.382433
0.453854
0.508826
0.521653
0.504518
0.487785
0.490529
0.510656
0.534583
0.54785
0.537746
0.497889
0.44001
0.395157
0.392185
0.433679
0.494991
0.545326
0.567048
0.55605
0.514792
0.455868
0.406369
0.394128
0.425259
0.478829
0.525215
0.547695
0.544948
0.520401
0.480687
0.442578
0.427948
0.445416
0.481251
0.5125
0.527013
0.526658
0.515393
0.494769
0.471831
0.460318
0.4673
0.483704
0.494518
0.496376
0.498422
0.506665
0.515595
0.517141
0.51017
0.496866
0.47747
0.456684
0.450331
0.474746
0.526719
0.578481
0.594881
0.555055
0.464687
0.359843
0.294986
0.309019
0.393149
0.493824
0.554876
0.561849
0.545652
0.547169
0.577705
0.603031
0.559077
0.394587
0.124591
-0.150528
-0.29924
-0.243089
-0.00581619
0.287992
0.474875
0.443883
0.19192
-0.168429
-0.460351
-0.543235
-0.378767
-0.0398071
0.3217
0.562513
0.629744
0.562584
0.447744
0.372147
0.379556
0.448912
0.510991
0.497236
0.393817
0.259317
0.185279
0.23055
0.378181
0.539859
0.60278
0.485488
0.182851
-0.206197
-0.515537
-0.610121
-0.451387
-0.109703
0.255967
0.477862
0.469239
0.251376
-0.0612702
-0.310559
-0.377369
-0.234797
0.0504385
0.352319
0.556065
0.618315
0.565796
0.460764
0.370975
0.343118
0.0481076
0.224247
0.428169
0.576991
0.630794
0.594493
0.498307
0.386875
0.3097
0.300681
0.359476
0.45221
0.534106
0.575426
0.567237
0.513022
0.428922
0.348595
0.311793
0.339336
0.417619
0.507556
0.570179
0.583619
0.541843
0.454313
0.35328
0.287063
0.292102
0.367615
0.4754
0.564858
0.599931
0.566692
0.472662
0.352391
0.262007
0.249553
0.323492
0.446412
0.558678
0.61169
0.583318
0.479279
0.338226
0.22621
0.203218
0.284493
0.428758
0.562511
0.621733
0.578064
0.445723
0.283551
0.176699
0.188009
0.313732
0.479935
0.584126
0.552972
0.381579
0.145199
-0.0314212
-0.0491554
0.100842
0.333289
0.528637
0.613078
0.592581
0.527643
0.482895
0.481779
0.491506
0.453038
0.339458
0.19334
0.102861
0.135762
0.285237
0.462765
0.543478
0.433634
0.126186
-0.272076
-0.5853
-0.673386
-0.497291
-0.130007
0.265045
0.52079
0.561169
0.417814
0.197447
0.0309269
0.00717411
0.130106
0.324259
0.484781
0.546859
0.521438
0.471897
0.461967
0.513113
0.591251
0.625344
0.544879
0.32518
0.0248593
-0.228956
-0.316243
-0.193854
0.0796413
0.364594
0.511157
0.433532
0.144375
-0.239451
-0.54496
-0.639502
-0.486729
-0.149842
0.228077
0.494206
0.569076
0.464734
0.259693
0.0666729
-0.0162614
-0.316578
-0.0596713
0.261581
0.514005
0.611127
0.537998
0.339216
0.105523
-0.0566827
-0.0748406
0.0570123
0.276844
0.485389
0.597531
0.573822
0.422603
0.200351
0.00145978
-0.0835945
-0.0146249
0.178323
0.407327
0.571629
0.60521
0.493134
0.274072
0.038473
-0.10605
-0.0911332
0.0777503
0.322117
0.529117
0.609609
0.529994
0.317534
0.0600775
-0.123846
-0.146536
0.00396837
0.25721
0.493571
0.607034
0.548943
0.33813
0.0621733
-0.150093
-0.195405
-0.0507328
0.214151
0.46851
0.590397
0.523152
0.293067
0.0074002
-0.187789
-0.19051
-0.00262273
0.267242
0.459577
0.454538
0.237784
-0.0844626
-0.335517
-0.375563
-0.18496
0.128437
0.397211
0.503004
0.439887
0.296958
0.19275
0.199952
0.304196
0.425447
0.48715
0.475722
0.440123
0.441989
0.502643
0.582007
0.598425
0.474654
0.192719
-0.166547
-0.451832
-0.533549
-0.372746
-0.040082
0.305507
0.499049
0.458113
0.211552
-0.114757
-0.355926
-0.396224
-0.219408
0.0914922
0.395886
0.579221
0.613573
0.547338
0.46082
0.421869
0.450803
0.51064
0.531685
0.460938
0.308685
0.152365
0.0862993
0.157844
0.334028
0.514962
0.585594
0.469177
0.165206
-0.227171
-0.544907
-0.655151
-0.515565
-0.183889
0.194536
0.453261
0.493569
0.316396
0.012663
-0.26993
-0.398424
-0.560452
-0.266235
0.115979
0.421024
0.528417
0.408561
0.120356
-0.206059
-0.423601
-0.439384
-0.247177
0.0714821
0.376203
0.537962
0.494733
0.261969
-0.0681081
-0.352749
-0.468233
-0.365424
-0.0852357
0.250538
0.492949
0.540654
0.372852
0.0536263
-0.279424
-0.476808
-0.452618
-0.215797
0.130185
0.426875
0.54281
0.428761
0.128619
-0.227023
-0.474703
-0.503656
-0.300471
0.0460348
0.375084
0.535926
0.458335
0.171618
-0.198348
-0.477891
-0.538266
-0.352281
-0.00372724
0.339692
0.511951
0.433017
0.137267
-0.232933
-0.490126
-0.508122
-0.284018
0.0594747
0.328867
0.370969
0.161164
-0.18165
-0.458792
-0.513884
-0.322849
-0.00260881
0.258212
0.321157
0.18139
-0.0422002
-0.188561
-0.154163
0.0512313
0.319808
0.524922
0.606392
0.589388
0.542945
0.525843
0.54822
0.565144
0.507201
0.335853
0.0906811
-0.119014
-0.18327
-0.0615808
0.18828
0.432028
0.528793
0.401617
0.0755112
-0.317138
-0.598376
-0.645457
-0.439248
-0.0665604
0.309126
0.537311
0.562395
0.42801
0.240013
0.114978
0.120674
0.243532
0.403623
0.509398
0.519903
0.465644
0.415751
0.425607
0.50076
0.593139
0.626284
0.532059
0.290999
-0.0333185
-0.3102
-0.417456
-0.307343
-0.0286843
0.286237
0.483958
0.466179
0.225523
-0.145756
-0.484783
-0.644189
-0.581723
-0.294135
0.0853709
0.384685
0.472517
0.313024
-0.027105
-0.397055
-0.632859
-0.638347
-0.410843
-0.041194
0.310358
0.493108
0.435014
0.157581
-0.22608
-0.548685
-0.674101
-0.552695
-0.230187
0.157208
0.437306
0.491279
0.296384
-0.0691169
-0.444056
-0.661559
-0.631332
-0.364262
0.0272877
0.365203
0.49817
0.369798
0.0324519
-0.36331
-0.635541
-0.666417
-0.442449
-0.0576698
0.311424
0.494566
0.411716
0.0966669
-0.308644
-0.613207
-0.679955
-0.47995
-0.0994977
0.281533
0.479484
0.403625
0.0890809
-0.311371
-0.596377
-0.629506
-0.40069
-0.0292034
0.285853
0.381124
0.224005
-0.0764294
-0.333211
-0.396024
-0.240714
0.019642
0.203604
0.180668
-0.041886
-0.324764
-0.488731
-0.424245
-0.147458
0.210327
0.485005
0.58539
0.52878
0.405131
0.317052
0.320565
0.395416
0.465765
0.460586
0.371714
0.2618
0.216362
0.28122
0.427845
0.56477
0.585474
0.421069
0.0849846
-0.305844
-0.583979
-0.630343
-0.425855
-0.058579
0.302319
0.495159
0.451824
0.216331
-0.0795567
-0.279283
-0.283886
-0.0940231
0.197917
0.459524
0.599205
0.609466
0.545235
0.479138
0.462741
0.500915
0.549907
0.542824
0.434588
0.244308
0.0570573
-0.0276388
0.0412071
0.233742
0.449847
0.569371
0.507175
0.247084
-0.134027
-0.48311
-0.6545
-0.369618
-0.125766
0.195171
0.440081
0.492483
0.318856