# vtk DataFile Version 3.0
PFC simulation results
ASCII
DATASET STRUCTURED_POINTS
DIMENSIONS 128 128 1
ORIGIN 0 0 0
SPACING 1 1 1
POINT_DATA 16384
SCALARS psi double
LOOKUP_TABLE default
0.186106
0.467306
0.520159
0.310351
-0.0774102
-0.461795
-0.659423
-0.582127
-0.267048
0.132085
0.412211
0.434309
0.188091
-0.203767
-0.539507
-0.651398
-0.485829
-0.118441
0.271251
0.491953
0.442048
0.143476
-0.264991
-0.586299
-0.672653
-0.487221
-0.1118
0.275329
0.487886
0.429565
0.127582
-0.27355
-0.57383
-0.628323
-0.412344
-0.0302562
0.322474
0.465045
0.32621
-0.0287573
-0.422051
-0.656001
-0.618459
-0.320653
0.104951
0.45836
0.583504
0.434096
0.0793428
-0.309681
-0.5383
-0.500179
-0.228485
0.11881
0.340537
0.310864
0.0466765
-0.30168
-0.535782
-0.527804
-0.282072
0.0766273
0.38087
0.533169
0.551957
0.520843
0.506611
0.507147
0.457212
0.285456
-0.0145243
-0.353617
-0.594656
-0.634816
-0.450083
-0.106053
0.259993
0.514462
0.605106
0.565999
0.473853
0.402894
0.392286
0.434069
0.4867
0.504163
0.458753
0.345658
0.177889
-0.0183296
-0.208252
-0.353734
-0.415985
-0.361892
-0.184846
0.0697344
0.308417
0.432833
0.384763
0.171684
-0.122496
-0.364555
-0.440959
-0.312734
-0.0300526
0.287293
0.51521
0.597599
0.559786
0.473493
0.413163
0.416319
0.462772
0.491014
0.448044
0.33887
0.230729
0.203705
0.289446
0.443204
0.566054
0.558054
0.368281
0.0344463
-0.31053
-0.506285
-0.458341
-0.184132
0.342017
0.540474
0.555228
0.354328
0.00516808
-0.336677
-0.507536
-0.427023
-0.133227
0.228076
0.472135
0.475703
0.231123
-0.147575
-0.470566
-0.577727
-0.418327
-0.0678156
0.300067
0.50366
0.448078
0.156562
-0.235754
-0.538815
-0.611664
-0.423073
-0.0582132
0.308233
0.500119
0.430519
0.13145
-0.253277
-0.530095
-0.562968
-0.3357
0.0425398
0.381182
0.511695
0.370985
0.0223789
-0.364434
-0.598178
-0.568574
-0.286641
0.117799
0.450188
0.558497
0.397959
0.0401214
-0.341341
-0.552576
-0.491375
-0.196425
0.16932
0.403796
0.383361
0.12381
-0.229079
-0.477445
-0.487592
-0.256238
0.0975122
0.407814
0.573106
0.603155
0.572561
0.544859
0.523735
0.455886
0.281576
1.10786e-05
-0.303395
-0.50281
-0.509069
-0.312441
0.00905941
0.315974
0.48324
0.47026
0.3286
0.161956
0.068702
0.094976
0.220075
0.376303
0.492595
0.531974
0.495542
0.403505
0.278883
0.142979
0.0193565
-0.0606146
-0.0617247
0.0340551
0.201274
0.367364
0.441802
0.356656
0.103903
-0.238387
-0.529207
-0.641109
-0.520668
-0.208569
0.165522
0.44408
0.533997
0.443354
0.259862
0.104952
0.0702585
0.168671
0.33502
0.474994
0.531546
0.517037
0.487558
0.491974
0.537431
0.586094
0.576349
0.458156
0.235884
-0.0096653
-0.159107
-0.12998
0.0706564
0.488935
0.595517
0.592883
0.451289
0.206502
-0.0372908
-0.158364
-0.0915543
0.132677
0.400104
0.57356
0.564042
0.365383
0.0617557
-0.199518
-0.286701
-0.156645
0.12464
0.414086
0.570075
0.521305
0.286843
-0.0275531
-0.269331
-0.32086
-0.158223
0.140139
0.428455
0.570518
0.503747
0.257037
-0.0539268
-0.272101
-0.28532
-0.085221
0.229129
0.501053
0.601935
0.486561
0.203672
-0.114945
-0.312704
-0.293576
-0.0676304
0.252989
0.509488
0.58214
0.437279
0.13576
-0.176936
-0.337337
-0.260304
0.0133798
0.33717
0.541845
0.530235
0.317115
0.0202506
-0.195748
-0.215018
-0.03615
0.233893
0.453591
0.543267
0.522425
0.468146
0.444301
0.453428
0.440391
0.343197
0.153346
-0.0616354
-0.196667
-0.177069
-0.00364148
0.241345
0.429849
0.456533
0.297204
0.0251515
-0.225566
-0.336061
-0.260454
-0.0373303
0.233585
0.448569
0.558297
0.575822
0.542019
0.490648
0.434908
0.376008
0.321539
0.293792
0.316295
0.388695
0.473099
0.503866
0.415387
0.182173
-0.143023
-0.436821
-0.572003
-0.483543
-0.200154
0.152775
0.408907
0.455718
0.28661
-0.000873837
-0.249204
-0.326319
-0.193498
0.0844805
0.377996
0.571034
0.625489
0.577964
0.497398
0.445234
0.445808
0.474941
0.479421
0.422311
0.321342
0.241619
0.245577
0.344777
0.506824
0.535707
0.546077
0.506142
0.410534
0.299097
0.23779
0.271
0.388059
0.528889
0.620531
0.613315
0.498603
0.318406
0.157882
0.101318
0.179146
0.348972
0.521951
0.614754
0.586212
0.446031
0.254995
0.106579
0.0776864
0.183327
0.36869
0.541087
0.621065
0.574651
0.419951
0.226466
0.0922363
0.0900498
0.222767
0.421933
0.589426
0.651088
0.582091
0.409378
0.209515
0.0808736
0.088835
0.226782
0.419763
0.568438
0.601669
0.500711
0.304722
0.107517
0.0173526
0.0899156
0.290096
0.512142
0.645294
0.633198
0.491537
0.29894
0.162607
0.155313
0.265988
0.406518
0.474965
0.430189
0.317456
0.22794
0.227903
0.310469
0.404044
0.430382
0.365192
0.254929
0.182456
0.209364
0.333069
0.48184
0.549369
0.450138
0.172294
-0.194132
-0.494709
-0.603285
-0.482611
-0.189846
0.147633
0.399822
0.511071
0.513748
0.481744
0.473908
0.50257
0.540821
0.556908
0.544176
0.522663
0.517261
0.532857
0.541662
0.491848
0.341896
0.105669
-0.133626
-0.265794
-0.219082
-0.0062073
0.267368
0.452045
0.435241
0.197749
-0.166206
-0.484302
-0.603977
-0.469392
-0.13764
0.243234
0.512413
0.588786
0.492548
0.31328
0.165121
0.130438
0.217799
0.365659
0.489612
0.541368
0.531457
0.502577
0.490848
0.331122
0.301721
0.351163
0.438312
0.50832
0.533043
0.522866
0.504315
0.495866
0.502569
0.519912
0.534996
0.530058
0.49736
0.452877
0.426301
0.434853
0.470862
0.512863
0.542101
0.546934
0.521772
0.474266
0.429957
0.416882
0.442693
0.490115
0.533278
0.554387
0.545719
0.50712
0.452208
0.410071
0.406964
0.444479
0.499742
0.545721
0.566856
0.557215
0.517216
0.461223
0.418605
0.414254
0.44752
0.493695
0.524572
0.524014
0.48834
0.427062
0.369166
0.353938
0.400983
0.488949
0.568786
0.599675
0.572333
0.50733
0.443583
0.420978
0.45361
0.509318
0.519422
0.424833
0.230919
0.0207743
-0.0947661
-0.0508193
0.128695
0.345639
0.495747
0.536819
0.501128
0.459122
0.469286
0.539384
0.617778
0.618924
0.468933
0.158389
-0.221894
-0.516703
-0.603402
-0.455095
-0.146181
0.177264
0.375384
0.398738
0.305817
0.2115
0.208628
0.313256
0.466264
0.584183
0.617929
0.575604
0.505588
0.460933
0.461988
0.479638
0.458389
0.367228
0.235567
0.13947
0.148171
0.27121
0.441187
0.54572
0.485947
0.229923
-0.149618
-0.492539
-0.643408
-0.534345
-0.211019
0.17721
0.449474
0.497082
0.325943
0.0419061
-0.197478
-0.2654
-0.128929
0.143732
0.42439
0.601831
0.637883
0.560991
0.434654
0.000544943
-0.0710436
0.0281194
0.243446
0.468476
0.608935
0.627369
0.5404
0.400439
0.278925
0.236925
0.29258
0.411503
0.529968
0.594963
0.586754
0.514779
0.410684
0.322965
0.297066
0.347519
0.446886
0.543913
0.596075
0.586362
0.520182
0.423328
0.339898
0.313175
0.357563
0.447331
0.534252
0.578342
0.563044
0.493412
0.396483
0.318506
0.302649
0.359717
0.459138
0.549919
0.592574
0.572832
0.497915
0.395686
0.311123
0.284697
0.326266
0.409921
0.494549
0.549145
0.558921
0.519291
0.439901
0.351737
0.29639
0.303404
0.375027
0.484395
0.584013
0.616741
0.528824
0.300683
-0.013108
-0.289257
-0.404168
-0.303505
-0.0314716
0.286587
0.519492
0.609874
0.585737
0.521071
0.488438
0.518015
0.578955
0.596081
0.494423
0.254533
-0.0509252
-0.285894
-0.338389
-0.188619
0.0794127
0.316536
0.391031
0.268105
0.0330841
-0.159366
-0.184625
-0.0221424
0.239693
0.462798
0.547573
0.483922
0.34258
0.228848
0.217829
0.308304
0.431514
0.508393
0.509633
0.469598
0.449197
0.484778
0.559205
0.608282
0.55381
0.350592
0.0344163
-0.272383
-0.428599
-0.357981
-0.0915345
0.236034
0.452112
0.441378
0.197942
-0.167925
-0.47576
-0.575501
-0.419574
-0.0751229
0.30256
0.552984
0.597194
0.452959
0.211034
-0.346227
-0.445133
-0.305842
0.00752019
0.348546
0.567055
0.586431
0.419506
0.154085
-0.0772994
-0.160202
-0.0558646
0.182565
0.437581
0.592327
0.586306
0.428056
0.190106
-0.0130099
-0.0801763
0.0221031
0.242628
0.472285
0.604845
0.585872
0.42433
0.190528
-0.00470664
-0.0647282
0.0402311
0.256882
0.476399
0.594764
0.560038
0.384702
0.144614
-0.0455278
-0.0910204
0.0314637
0.261677
0.486861
0.603875
0.564894
0.386731
0.147419
-0.0397144
-0.0840701
0.0337869
0.253692
0.468865
0.584407
0.556074
0.394851
0.164014
-0.0380771
-0.12295
-0.0530942
0.143663
0.383921
0.565045
0.605842
0.464327
0.156224
-0.220042
-0.512287
-0.59803
-0.440846
-0.104809
0.263627
0.515255
0.584557
0.502546
0.360141
0.259905
0.262935
0.356089
0.462407
0.490479
0.397519
0.226336
0.0828234
0.0630774
0.185817
0.374882
0.498426
0.443219
0.186249
-0.170718
-0.447536
-0.500877
-0.307643
0.0256414
0.3193
0.428656
0.324246
0.0962252
-0.100886
-0.140678
0.00365423
0.25447
0.486606
0.611354
0.621609
0.570837
0.524936
0.521521
0.548006
0.548512
0.463227
0.282905
0.0752957
-0.0509636
-0.019238
0.160823
0.388576
0.524465
0.46383
0.189073
-0.20422
-0.540236
-0.664321
-0.520035
-0.16792
0.229648
0.488514
0.50401
0.285387
-0.0551741
-0.548183
-0.660065
-0.503047
-0.144295
0.250038
0.4964
0.492761
0.251533
-0.109582
-0.413436
-0.51543
-0.369755
-0.0428977
0.309616
0.522099
0.504
0.267763
-0.0763165
-0.361267
-0.450463
-0.302712
0.013068
0.344083
0.532968
0.496777
0.251952
-0.0898828
-0.364258
-0.440196
-0.282265
0.0358545
0.35934
0.533019
0.478258
0.216976
-0.132588
-0.402773
-0.465995
-0.293413
0.0353029
0.362169
0.533308
0.474633
0.213013
-0.130789
-0.390826
-0.444332
-0.268215
0.0542805
0.368606
0.530451
0.472944
0.220098
-0.121416
-0.401906
-0.503444
-0.387355
-0.100423
0.238196
0.487795
0.550896
0.396982
0.0691911
-0.307462
-0.571809
-0.612498
-0.412434
-0.0540971
0.304556
0.511967
0.503485
0.316141
0.0637103
-0.115692
-0.131407
0.0169064
0.245263
0.43489
0.507878
0.473856
0.411074
0.403598
0.479883
0.589696
0.630881
0.507884
0.198444
-0.200096
-0.506966
-0.574949
-0.378861
-0.0305017
0.273326
0.365272
0.203113
-0.111701
-0.391102
-0.473527
-0.310147
0.0215215
0.363051
0.572423
0.60294
0.502083
0.366976
0.291262
0.313878
0.399615
0.470109
0.466423
0.396205
0.325444
0.323792
0.409699
0.533135
0.602686
0.53348
0.29464
-0.0518872
-0.362403
-0.493359
-0.381904
-0.077632
0.269113
0.481528
0.450532
0.178213
-0.217344
-0.51346
-0.625004
-0.47418
-0.126756
0.251657
0.475594
0.43867
0.153601
-0.249598
-0.57733
-0.678439
-0.509388
-0.143681
0.246819
0.474976
0.437808
0.153024
-0.245953
-0.565435
-0.656786
-0.480426
-0.114959
0.265278
0.476782
0.423169
0.128469
-0.269418
-0.577684
-0.653306
-0.462823
-0.0904421
0.286347
0.486283
0.418276
0.111748
-0.29079
-0.59559
-0.66327
-0.465246
-0.0894275
0.285473
0.480322
0.408297
0.103239
-0.290455
-0.58153
-0.635795
-0.43097
-0.0600547
0.301096
0.48495
0.414923
0.123442
-0.260574
-0.565178
-0.664554
-0.524709
-0.201961
0.171926
0.445849
0.52339
0.386808
0.0926796
-0.232859
-0.441225
-0.437948
-0.222611
0.110556
0.407899
0.532799
0.427729
0.133401
-0.218492
-0.463739
-0.494304
-0.301333
0.027922
0.348925
0.545405
0.595855
0.561572
0.528635
0.54964
0.610233
0.636955
0.542951
0.293325
-0.04233
-0.310013
-0.372006
-0.198494
0.10848
0.36459
0.409673
0.197653
-0.174029
-0.509966
-0.634254
-0.484336
-0.131477
0.251029
0.485759
0.493687
0.316019
0.0788749
-0.0728557
-0.0551749
0.114966
0.340657
0.51176
0.576298
0.559134
0.52336
0.519528
0.555049
0.591191
0.564949
0.430285
0.204242
-0.0218127
-0.133134
-0.0655338
0.151145
0.400458
0.540251
0.474903
0.19781
-0.189696
-0.255034
-0.351434
-0.229133
0.0552724
0.359042
0.525894
0.464927
0.18599
-0.194283
-0.497814
-0.583865
-0.414232
-0.0645156
0.298902
0.50108
0.448448
0.161185
-0.229698
-0.535779
-0.614342
-0.431334
-0.0694445
0.298243
0.495235
0.432109
0.136159
-0.255059
-0.551988
-0.616261
-0.419374
-0.0491617
0.318589
0.50989
0.44049
0.141423
-0.248715
-0.54207
-0.60336
-0.406709
-0.041147
0.318809
0.502517
0.429448
0.133777
-0.245346
-0.523785
-0.572213
-0.371064
-0.0133662
0.331201
0.505689
0.44177
0.173359
-0.177649
-0.451469
-0.532788
-0.395125
-0.0982236
0.234544
0.473158
0.543442
0.44097
0.219384
-0.0189458
-0.158107
-0.126978
0.0646846
0.328493
0.536399
0.579007
0.406124
0.0531764
-0.347785
-0.625975
-0.667962
-0.459761
-0.0876878
0.288759
0.525773
0.578529
0.501416
0.397023
0.354827
0.399674
0.479398
0.502497
0.406847
0.217663
0.0433456
3.9259e-05
0.126035
0.349324
0.52689
0.528336
0.307511
-0.0609312
-0.404082
-0.551513
-0.433156
-0.111618
0.242447
0.443087
0.394745
0.1317
-0.201213
-0.424135
-0.423492
-0.20065
0.13861
0.441934
0.602609
0.60918
0.521933
0.425624
0.385884
0.415705
0.471388
0.487187
0.429569
0.329196
0.259582
0.280266
0.391318
0.529395
0.603345
0.539914
0.320938
0.0114591
0.114683
0.0475886
0.12207
0.304358
0.498291
0.597918
0.538043
0.320647
0.0271289
-0.207626
-0.269437
-0.127109
0.152146
0.432109
0.578969
0.524241
0.285113
-0.0350457
-0.283433
-0.33988
-0.177918
0.125017
0.421947
0.573825
0.514543
0.268267
-0.054429
-0.297895
-0.344447
-0.172224
0.137192
0.435467
0.586453
0.528491
0.28767
-0.0274837
-0.265582
-0.312231
-0.146495
0.151582
0.437578
0.579755
0.519512
0.284602
-0.0175125
-0.240667
-0.277718
-0.113813
0.169889
0.437185
0.57153
0.527356
0.333492
0.0799675
-0.116067
-0.169179
-0.0642171
0.145596
0.368276
0.520948
0.565369
0.506718
0.380362
0.246636
0.174505
0.207541
0.337574
0.505267
0.625838
0.620997
0.443945
0.112374
-0.265749
-0.535062
-0.583044
-0.390594
-0.041279
0.304096
0.494458
0.473555
0.294705
0.0841643
-0.0280055
0.0188049
0.187286
0.371423
0.468789
0.451999
0.380573
0.346646
0.403335
0.526697
0.631753
0.624702
0.457245
0.167591
-0.118434
-0.256515
-0.175574
0.0765389
0.351949
0.483967
0.377464
0.0563252
-0.335781
-0.608213
-0.634107
-0.402438
-0.0168199
0.347151
0.542705
0.528024
0.361564
0.161356
0.0474777
0.0791106
0.228272
0.406153
0.525212
0.555279
0.528581
0.499933
0.505082
0.542244
0.576199
0.557305
0.452414
0.279611
0.437603
0.403626
0.417454
0.480007
0.556805
0.600258
0.571916
0.460822
0.301132
0.167411
0.132298
0.21868
0.384219
0.54608
0.627321
0.588974
0.439523
0.239021
0.0829086
0.0514275
0.161512
0.35718
0.541955
0.63234
0.591486
0.4348
0.229322
0.0738124
0.0471239
0.162358
0.360371
0.54464
0.635088
0.598954
0.452686
0.259681
0.112501
0.0855135
0.191452
0.374727
0.544591
0.626127
0.58944
0.451556
0.273231
0.140325
0.118841
0.215912
0.377535
0.523774
0.59581
0.577122
0.486576
0.368515
0.278472
0.255251
0.299041
0.376431
0.44722
0.490431
0.507426
0.505097
0.486034
0.456866
0.435401
0.44175
0.483646
0.54881
0.604664
0.602569
0.493683
0.267023
-0.0136743
-0.228577
-0.274009
-0.123926
0.148991
0.400275
0.49106
0.36281
0.0681813
-0.246923
-0.422434
-0.374208
-0.128003
0.197791
0.458634
0.574646
0.564201
0.504613
0.472913
0.501673
0.564904
0.598663
0.544569
0.39695
0.222668
0.124201
0.167104
0.329314
0.507425
0.574186
0.445012
0.126613
-0.263002
-0.547777
-0.598398
-0.393369
-0.0282808
0.319118
0.486709
0.413191
0.153333
-0.149523
-0.334384
-0.309306
-0.0887353
0.222185
0.486771
0.617646
0.610989
0.520624
0.419824
0.368847
0.387007
0.444768
0.487828
0.481137
0.60796
0.594762
0.537701
0.477531
0.445286
0.4516
0.480949
0.502394
0.496021
0.471246
0.455109
0.464764
0.495268
0.529323
0.550789
0.547797
0.513664
0.456907
0.406486
0.394157
0.428479
0.488841
0.543604
0.570635
0.561431
0.517355
0.453885
0.402363
0.392328
0.428061
0.4859
0.53496
0.557717
0.550935
0.517626
0.46923
0.429597
0.422295
0.450444
0.493904
0.527943
0.54115
0.534208
0.510616
0.477919
0.452047
0.447655
0.462492
0.478785
0.483452
0.482158
0.489616
0.510991
0.53793
0.557773
0.557942
0.524698
0.452893
0.363781
0.30315
0.31025
0.38451
0.48255
0.549793
0.556248
0.508816
0.443756
0.40659
0.421141
0.465768
0.482032
0.420333
0.290022
0.164027
0.128171
0.218244
0.388297
0.528761
0.524358
0.316547
-0.0498082
-0.425863
-0.640993
-0.600489
-0.320654
0.0765758
0.418346
0.584836
0.5646
0.43073
0.291656
0.236508
0.289987
0.405892
0.503572
0.52627
0.481367
0.428906
0.430199
0.499638
0.591839
0.626585
0.531979
0.291672
-0.021129
-0.268203
-0.329603
-0.174045
0.119083
0.391975
0.493478
0.355272
0.0230091
-0.352518
-0.591607
-0.585725
-0.33748
0.0445967
0.391716
0.570682
0.546852
0.374561
0.163489
0.0311624
0.044308
0.188458
0.384273
0.540259
0.623447
0.606122
0.465201
0.282506
0.152171
0.137367
0.239214
0.400611
0.543467
0.614333
0.601064
0.521118
0.411704
0.322973
0.297763
0.346552
0.440295
0.530273
0.578999
0.573438
0.518665
0.434877
0.358453
0.328552
0.362288
0.441498
0.525074
0.575883
0.575684
0.522838
0.432948
0.343287
0.29986
0.328266
0.414656
0.514673
0.582356
0.591289
0.53648
0.435063
0.329737
0.273984
0.299603
0.394641
0.510734
0.593131
0.60589
0.53802
0.407936
0.269383
0.193305
0.225894
0.356955
0.523271
0.644441
0.660514
0.548791
0.336341
0.10744
-0.0292569
-0.00501366
0.164305
0.383528
0.53531
0.547776
0.4244
0.238656
0.0987754
0.0846249
0.198036
0.364401
0.486839
0.516963
0.48221
0.451226
0.475501
0.549422
0.60859
0.563505
0.352759
0.000393036
-0.366511
-0.586614
-0.560922
-0.297299
0.0863337
0.411369
0.541586
0.44796
0.204891
-0.0471974
-0.172463
-0.110819
0.0995767
0.350108
0.528905
0.58811
0.555949
0.499395
0.477267
0.505811
0.549685
0.544916
0.446395
0.273476
0.111609
0.0574642
0.151253
0.344211
0.520247
0.557911
0.389568
0.0424686
-0.34996
-0.612955
-0.631571
-0.397842
-0.0150046
0.338505
0.506424
0.432562
0.170087
-0.142556
-0.344966
-0.338609
-0.127158
0.191741
0.47684
0.556115
0.507249
0.275676
-0.0184605
-0.228327
-0.253369
-0.0834548
0.200967
0.468946
0.610309
0.581572
0.406077
0.16429
-0.0306699
-0.0865064
0.0217806
0.240565
0.464954
0.595928
0.583735
0.435565
0.213256
0.0179043
-0.0569877
0.0251738
0.225217
0.447002
0.589175
0.592171
0.452235
0.223429
0.00741127
-0.0925653
-0.0273104
0.172698
0.410968
0.576345
0.597662
0.464201
0.228345
-0.00414208
-0.121194
-0.0648888
0.138973
0.392011
0.57449
0.6047
0.464467
0.205287
-0.0582335
-0.198486
-0.144599
0.0805311
0.367785
0.576639
0.60584
0.4291
0.108061
-0.215586
-0.386861
-0.324096
-0.061404
0.262134
0.476495
0.477152
0.270325
-0.0320076
-0.264784
-0.303455
-0.128865
0.16994
0.449752
0.606126
0.628802
0.578991
0.533065
0.53323
0.561348
0.549193
0.425844
0.181568
-0.0999586
-0.28506
-0.276074
-0.0698705
0.231532
0.46827
0.511017
0.322979
-0.0212371
-0.360009
-0.531556
-0.459825
-0.179728
0.179255
0.458842
0.565075
0.505287
0.361643
0.24187
0.221423
0.303111
0.42271
0.498318
0.491766
0.433857
0.393468
0.421375
0.51206
0.604447
0.61418
0.476521
0.191966
-0.146027
-0.39007
-0.427071
-0.238252
0.0862389
0.381674
0.496378
0.365286
0.0350562
-0.34503
-0.59485
-0.601674
-0.361468
0.0222591
0.377149
0.496007
0.400281
0.0937654
-0.277494
-0.535513
-0.563559
-0.349192
0.0144749
0.361401
0.539354
0.482062
0.22141
-0.123206
-0.390265
-0.458265
-0.298012
0.0186924
0.344689
0.532182
0.504034
0.273346
-0.0597849
-0.341833
-0.443302
-0.318864
-0.0229907
0.307409
0.519562
0.521343
0.309892
-0.0265257
-0.334271
-0.471033
-0.37556
-0.0893732
0.255016
0.495745
0.525669
0.330575
-0.00705454
-0.331413
-0.490394
-0.412033
-0.130158
0.224867
0.484768
0.531416
0.341445
-0.0068026
-0.3531
-0.533904
-0.466967
-0.181995
0.186336
0.457206
0.499812
0.288469
-0.0861581
-0.444223
-0.610075
-0.504555
-0.177295
0.206612
0.448204
0.426926
0.153905
-0.231944
-0.529381
-0.589406
-0.383373
-0.00699366
0.364179
0.580837
0.603724
0.495392
0.365401
0.307537
0.346592
0.427437
0.459264
0.388582
0.246071
0.12628
0.11823
0.242067
0.429651
0.559611
0.522646
0.277644
-0.110203
-0.480214
-0.667162
-0.591854
-0.288043
0.105226
0.404996
0.489983
0.355744
0.102397
-0.117188
-0.179938
-0.0555204
0.187853
0.428905
0.571261
0.596777
0.553546
0.508899
0.506884
0.544362
0.572741
0.527357
0.376343
0.160696
-0.0173671
-0.0591917
0.0654264
0.293463
0.49706
0.550953
0.39055
0.0467221
-0.345816
-0.61176
-0.634823
-0.404542
-0.0218337
0.333071
0.500298
0.366431
0.0277344
-0.367712
-0.637508
-0.664125
-0.436139
-0.050626
0.31447
0.491183
0.404449
0.0926791
-0.302327
-0.59619
-0.65968
-0.466948
-0.0996164
0.27452
0.483472
0.437724
0.15672
-0.235313
-0.556749
-0.664529
-0.513775
-0.16688
0.219622
0.4664
0.464981
0.21507
-0.174619
-0.523303
-0.672867
-0.560191
-0.231893
0.16407
0.441416
0.475245
0.250602
-0.133774
-0.497793
-0.673444
-0.585456
-0.270403
0.129913
0.426339
0.484231
0.278628
-0.0997561
-0.472791
-0.666096
-0.596343
-0.295194
0.0973222
0.389734
0.444019
0.238654
-0.124789
-0.460404
-0.596594
-0.463819
-0.121272
0.261628
0.489727
0.448424
0.151145
-0.261102
-0.581822
-0.656405
-0.45245
-0.0670951
0.310935
0.509744
0.472837
0.26853
0.0415736
-0.0669995
0.00164282
0.198492
0.40572
0.51995
0.519883
0.463365
0.431168
0.467863
0.552334
0.609344
0.551091
0.329408
-0.0147709
-0.347576
-0.51825
-0.448331
-0.169028
0.183451
0.429228
0.444182
0.219309
-0.133779
-0.433362
-0.530204
-0.379763
-0.0515035
0.304086
0.540873
0.599839
0.516563
0.381069
0.289231
0.29322
0.374793
0.462692
0.486261
0.430132
0.345407
0.307825
0.360199
0.480944
0.595062
0.613904
0.477012
0.191097
-0.14682
-0.389075
-0.424122
-0.234405
0.0901981
0.385783
0.56179
0.422573
0.112155
-0.246454
-0.491724
-0.514195
-0.303567
0.0462162
0.36943
0.513548
0.411043
0.0996606
-0.283476
-0.560599
-0.608988
-0.408688
-0.0455811
0.314368
0.507191
0.450782
0.167448
-0.219436
-0.531379
-0.629283
-0.47245
-0.126848
0.251498
0.489228
0.484655
0.240262
-0.137684
-0.473923
-0.614953
-0.500529
-0.17915
0.203518
0.469235
0.501336
0.287359
-0.0789062
-0.42657
-0.594358
-0.509433
-0.208474
0.171651
0.453163
0.512493
0.328258
-0.0163322
-0.358964
-0.538379
-0.476101
-0.20253
0.152948
0.419585
0.478883
0.31637
0.0215088
-0.248137
-0.347514
-0.220189
0.0761192
0.39447
0.576022
0.529769
0.264967
-0.10376
-0.398009
-0.474547
-0.300106
0.0324065
0.342065
0.461217
0.329822
0.0219038
-0.291803
-0.440708
-0.347593
-0.0576044
0.289366
0.54358
0.638334
0.605397
0.526761
0.479385
0.493236
0.535623
0.532768
0.421335
0.205152
-0.0273359
-0.154503
-0.101486
0.111378
0.370485
0.525243
0.466917
0.182906
-0.220223
-0.55761
-0.674482
-0.521458
-0.166693
0.226031
0.48183
0.514377
0.3518
0.107955
-0.0736499
-0.095417
0.0473008
0.27377
0.471198
0.567411
0.56662
0.524676
0.500725
0.521737
0.570287
0.594703
0.537258
0.375463
0.155846
-0.0196377
-0.0567069
0.0702624
0.297271
0.500476
0.613429
0.513014
0.292206
0.0298163
-0.154924
-0.171776
-0.0101342
0.252956
0.488762
0.584215
0.48972
0.233745
-0.0769817
-0.298545
-0.327608
-0.150687
0.151701
0.439762
0.586374
0.532177
0.297
-0.0212401
-0.277301
-0.35301
-0.214749
0.0748132
0.382072
0.570177
0.563936
0.367641
0.0638278
-0.208545
-0.321576
-0.22357
0.0403219
0.346546
0.555255
0.580169
0.413621
0.126176
-0.150676
-0.285921
-0.217246
0.0225326
0.319797
0.537689
0.586747
0.453261
0.197393
-0.0623666
-0.202165
-0.157928
0.0457935
0.308582
0.507153
0.561529
0.464294
0.275248
0.0978736
0.0300407
0.111289
0.302645
0.508504
0.628422
0.60132
0.4247
0.166558
-0.0498236
-0.11163
0.0131968
0.249777
0.449109
0.46977
0.256664
-0.118367
-0.479698
-0.650739
-0.550215
-0.219886
0.190531
0.50171
0.614632
0.544935
0.385463
0.252039
0.223788
0.301506
0.413806
0.470053
0.428226
0.326262
0.250783
0.271998
0.393523
0.545428
0.621586
0.534074
0.261641
-0.114764
-0.434499
-0.552026
-0.415947
-0.0908594
0.26252
0.468519
0.432277
0.177106
-0.166661
-0.423469
-0.469304
-0.28548
0.043273
0.370503
0.57299
0.61497
0.539442
0.426487
0.353413
0.358392
0.422267
0.484363
0.487251
0.422712
0.340256
0.30816
0.361459
0.476568
0.585509
0.565868
0.543722
0.456868
0.33153
0.232191
0.219023
0.305511
0.448759
0.575863
0.623703
0.562595
0.405467
0.213477
0.0768136
0.0647637
0.184572
0.377818
0.553902
0.638695
0.600805
0.45296
0.253007
0.0912508
0.0461049
0.139244
0.324137
0.512606
0.623928
0.618352
0.500313
0.316873
0.150291
0.0816949
0.144937
0.307485
0.489527
0.609975
0.62376
0.528606
0.362744
0.199888
0.119031
0.159763
0.299457
0.467587
0.588193
0.617319
0.550389
0.417203
0.277275
0.197531
0.215311
0.317183
0.449701
0.553792
0.595188
0.570231
0.49915
0.419266
0.370147
0.373352
0.42366
0.496088
0.557815
0.575639
0.526794
0.421979
0.316606
0.280957
0.346782
0.474516
0.566715
0.519375
0.283001
-0.0876578
-0.438994
-0.608078
-0.516045
-0.201834
0.186441
0.464435
0.520534
0.362403
0.0979752
-0.119344
-0.172381
-0.0390088
0.204766
0.433908
0.556177
0.56382
0.515968
0.485295
0.511088
0.577393
0.622813
0.574718
0.395683
0.126177
-0.118239
-0.215123
-0.112258
0.138566
0.400574
0.522934
0.417343
0.100006
-0.299858
-0.598748
-0.66464
-0.471711
-0.102539
0.279716
0.518294
0.547573
0.401792
0.183304
0.0167788
-0.0120158
0.103375
0.295613
0.468233
0.557027
0.562218
0.528436
0.503399
0.510476
0.541889
0.359663
0.440588
0.507424
0.530362
0.518284
0.500356
0.496995
0.509446
0.527856
0.540065
0.533405
0.499575
0.447357
0.405267
0.401281
0.43894
0.495654
0.542694
0.563582
0.554176
0.515848
0.459506
0.410885
0.397663
0.426937
0.479032
0.525006
0.54798
0.545953
0.521573
0.480939
0.440967
0.424562
0.441732
0.479453
0.514069
0.531646
0.53229
0.519106
0.494042
0.465837
0.450747
0.45805
0.479154
0.497024
0.504671
0.508223
0.512876
0.514696
0.508846
0.497795
0.486102
0.473737
0.462075
0.46225
0.48754
0.53503
0.579922
0.59075
0.549313
0.461978
0.363123
0.303801
0.319783
0.401344
0.496608
0.552562
0.557568
0.543576
0.549893
0.583819
0.606565
0.551945
0.371645
0.0886888
-0.188687
-0.327655
-0.255187
-0.00335046
0.296165
0.478639
0.438358
0.180199
-0.177075
-0.456559
-0.523312
-0.346497
-0.00545095
0.346682
0.572967
0.628846
0.558151
0.447533
0.37993
0.393272
0.462102
0.516764
0.492759
0.382712
0.2497
0.18437
0.239886
0.392528
0.550378
0.602079
0.471294
0.160081
-0.22638
-0.522048
-0.598143
-0.423833
-0.0766219
0.281325
0.48606
0.457695
0.223408
-0.0976415
-0.345874
-0.404949
-0.251906
0.0431846
0.351561
0.557177
0.616774
0.557696
0.443974
0.346797
0.316392
0.0174788
0.203507
0.418487
0.575859
0.633223
0.595082
0.493253
0.375426
0.294233
0.285287
0.348036
0.44682
0.534328
0.578759
0.570472
0.51362
0.425856
0.342507
0.304468
0.332836
0.41344
0.506057
0.570618
0.584867
0.543154
0.455486
0.354348
0.287973
0.292638
0.367486
0.474449
0.563326
0.598723
0.567348
0.476642
0.359944
0.271675
0.258766
0.329734
0.448402
0.557154
0.609403
0.584188
0.486621
0.352616
0.244691
0.220778
0.296587
0.433467
0.561494
0.619545
0.580295
0.456405
0.302624
0.199662
0.208486
0.326939
0.484918
0.58374
0.552003
0.384465
0.153988
-0.0181654
-0.0355394
0.11025
0.335964
0.525701
0.608881
0.5927
0.536022
0.498764
0.498498
0.499144
0.443991
0.313783
0.159537
0.0728172
0.117801
0.279864
0.463075
0.539896
0.419864
0.103475
-0.294813
-0.597381
-0.668923
-0.477438
-0.102904
0.288039
0.532573
0.562399
0.414707
0.197873
0.0402069
0.0252234
0.151614
0.341688
0.493004
0.546322
0.517143
0.469498
0.464113
0.518165
0.594757
0.62296
0.535125
0.311581
0.0156449
-0.225462
-0.296902
-0.162657
0.112633
0.387822
0.517459
0.422191
0.120496
-0.266453
-0.565904
-0.649791
-0.486567
-0.143136
0.235062
0.495618
0.561153
0.445666
0.230228
0.0308222
-0.0524811
-0.341963
-0.0775962
0.251001
0.508213
0.606125
0.529993
0.326142
0.0879309
-0.0761846
-0.0930642
0.0427057
0.267802
0.481157
0.596159
0.572881
0.420117
0.195333
-0.00592281
-0.0923107
-0.0232606
0.171165
0.402581
0.569437
0.605148
0.494643
0.276479
0.0408848
-0.104527
-0.0910573
0.0763867
0.320023
0.527571
0.610147
0.53406
0.325722
0.0713035
-0.112065
-0.136854
0.00983349
0.259296
0.493945
0.609124
0.556311
0.352742
0.0826784
-0.128028
-0.176694
-0.0386268
0.21944
0.470131
0.593513
0.532723
0.311408
0.0322933
-0.162141
-0.170135
0.00900149
0.270569
0.45854
0.454249
0.242147
-0.0744078
-0.322016
-0.362874
-0.177479
0.128296
0.390949
0.495997
0.439371
0.308697
0.217117
0.230177
0.328909
0.434829
0.478869
0.456023
0.419566
0.429143
0.499449
0.58321
0.595092
0.459498
0.165102
-0.198906
-0.477592
-0.544769
-0.368215
-0.0257107
0.319645
0.505148
0.454765
0.203489
-0.119528
-0.350834
-0.379651
-0.195261
0.115367
0.412019
0.585027
0.611547
0.542093
0.456323
0.419806
0.450301
0.509449
0.528296
0.456748
0.308352
0.16096
0.105301
0.183326
0.358148
0.530076
0.588087
0.460459
0.151305
-0.23742
-0.54447
-0.642213
-0.493292
-0.159331
0.212891
0.459602
0.486146
0.296276
-0.0165466
-0.302629
-0.429288
-0.568279
-0.270573
0.113261
0.417555
0.52211
0.398204
0.106239
-0.222039
-0.439108
-0.45281
-0.257661
0.0642686
0.371877
0.535469
0.492815
0.25956
-0.0717007
-0.357756
-0.474489
-0.372409
-0.0919703
0.245314
0.490171
0.540621
0.375268
0.0574654
-0.275798
-0.474887
-0.453129
-0.218456
0.126779
0.424795
0.543959
0.434247
0.138023
-0.21601
-0.465137
-0.497756
-0.298889
0.0446151
0.373739
0.538201
0.466835
0.186578
-0.179998
-0.46101
-0.526714
-0.347512
-0.0042339
0.338113
0.514262
0.442705
0.154521
-0.21206
-0.471588
-0.496521
-0.281
0.0557577
0.322973
0.367668
0.163364
-0.173859
-0.448074
-0.504425
-0.318981
-0.007047
0.246601
0.307997
0.175144
-0.0340058
-0.163907
-0.118597
0.0864195
0.343292
0.53221
0.60177
0.581976
0.540931
0.531921
0.558198
0.570437
0.499769
0.313286
0.0586164
-0.149917
-0.203733
-0.0682866
0.191558
0.436944
0.527663
0.391552
0.0599113
-0.330279
-0.601577
-0.635765
-0.419094
-0.0433035
0.326654
0.544176
0.559127
0.418653
0.22989
0.108384
0.119119
0.245713
0.407021
0.512643
0.524023
0.472685
0.426139
0.436964
0.509162
0.595661
0.622776
0.525492
0.287214
-0.0273656
-0.290313
-0.384752
-0.267837
0.00844745
0.312378
0.495266
0.463836
0.213436
-0.162293
-0.500625
-0.65634
-0.566855
-0.279957
0.0951557
0.388085
0.469898
0.306221
-0.0355296
-0.404572
-0.638107
-0.641423
-0.412566
-0.0423634
0.309338
0.492278
0.434637
0.157771
-0.225653
-0.548713
-0.675272
-0.555328
-0.233862
0.153728
0.435478
0.49206
0.299835
-0.0641563
-0.439664
-0.659562
-0.632501
-0.368094
0.022649
0.362265
0.498849
0.374657
0.0401781
-0.355733
-0.631178
-0.666842
-0.447317
-0.0645575
0.30622
0.494113
0.417131
0.106463
-0.298458
-0.607018
-0.680202
-0.486408
-0.109115
0.273622
0.477305
0.408533
0.0991955
-0.300754
-0.590298
-0.630787
-0.409199
-0.0417976
0.273996
0.373848
0.222898
-0.0719711
-0.325758
-0.389484
-0.239495
0.0121525
0.187346
0.160297
-0.0577831
-0.327445
-0.474255
-0.395691
-0.114133
0.23715
0.499241
0.589447
0.530497
0.41241
0.333157
0.342007
0.413671
0.472046
0.451057
0.349918
0.236632
0.196938
0.272076
0.427048
0.565732
0.581072
0.407513
0.0644004
-0.325947
-0.595545
-0.629299
-0.413411
-0.0411447
0.315973
0.499071
0.445236
0.203012
-0.0931839
-0.287384
-0.283894
-0.0871659
0.207624
0.467796
0.60391
0.610449
0.542689
0.473013
0.453344
0.489596
0.539172
0.536177
0.436427
0.258838
0.0856053
0.011414
0.0830975
0.269501
0.473358
0.580128
0.509182
0.246095
-0.132659
-0.476374
-0.642526
-0.336217
-0.0970021
0.214703
0.44953
0.494678
0.318121
-0.0187982