# vtk DataFile Version 3.0
PFC simulation results
ASCII
DATASET STRUCTURED_POINTS
DIMENSIONS 128 128 1
ORIGIN 0 0 0
SPACING 1 1 1
POINT_DATA 16384
SCALARS psi double
LOOKUP_TABLE default
0.189913
0.470252
0.522526
0.312438
-0.0755819
-0.460349
-0.658365
-0.581332
-0.26641
0.1326
0.412613
0.434602
0.188198
-0.204038
-0.540354
-0.652888
-0.487787
-0.120353
0.270082
0.492012
0.443375
0.145554
-0.263192
-0.585809
-0.673958
-0.490091
-0.11524
0.272723
0.487106
0.43075
0.130026
-0.271194
-0.572893
-0.629446
-0.415199
-0.0334938
0.320662
0.465926
0.329911
-0.0234768
-0.417408
-0.654001
-0.620059
-0.325453
0.0988447
0.453466
0.58164
0.435958
0.0842382
-0.304119
-0.535113
-0.501275
-0.233409
0.1127
0.336162
0.309523
0.0477824
-0.299753
-0.534461
-0.527479
-0.282176
0.0768936
0.381724
0.533982
0.55177
0.519286
0.504642
0.506961
0.461097
0.294084
-0.00330801
-0.344036
-0.590371
-0.637048
-0.457489
-0.115223
0.253035
0.512001
0.607021
0.570726
0.479464
0.407846
0.395924
0.436649
0.488952
0.506626
0.461081
0.346214
0.174269
-0.0276799
-0.222439
-0.369345
-0.428599
-0.368021
-0.183532
0.0762915
0.316044
0.437787
0.385401
0.16883
-0.126074
-0.36573
-0.438005
-0.306008
-0.0217983
0.294049
0.518518
0.597548
0.557913
0.471708
0.412798
0.41751
0.464508
0.491886
0.447243
0.336738
0.228418
0.202279
0.289233
0.44382
0.566978
0.559182
0.369961
0.0370716
-0.306883
-0.501869
-0.453585
-0.179594
0.346529
0.543979
0.558668
0.358679
0.0106878
-0.330595
-0.501799
-0.422328
-0.129939
0.230054
0.473455
0.477307
0.233727
-0.143951
-0.466601
-0.574299
-0.416029
-0.0666826
0.300645
0.504638
0.450213
0.159892
-0.232107
-0.536106
-0.610727
-0.423955
-0.0600871
0.306743
0.500133
0.432325
0.134342
-0.250789
-0.529469
-0.564818
-0.339476
0.0384687
0.378728
0.511946
0.37371
0.0260238
-0.362143
-0.598994
-0.57298
-0.293712
0.110149
0.443899
0.554018
0.394362
0.0359545
-0.347426
-0.561378
-0.502659
-0.208391
0.159506
0.398048
0.38151
0.124166
-0.228578
-0.478101
-0.489384
-0.258153
0.0965911
0.408198
0.57409
0.603648
0.572025
0.544012
0.524472
0.460196
0.289916
0.0101992
-0.295337
-0.500135
-0.512581
-0.320429
0.000146559
0.309915
0.482132
0.474123
0.336168
0.171477
0.0785637
0.10406
0.227713
0.382153
0.496538
0.533712
0.494062
0.397182
0.266612
0.125597
4.55997e-05
-0.077395
-0.0721369
0.0314349
0.204648
0.372643
0.444765
0.354828
0.0975624
-0.246229
-0.534543
-0.641245
-0.515257
-0.199728
0.17402
0.44904
0.534525
0.440722
0.256524
0.103284
0.0713089
0.171758
0.338375
0.476979
0.531637
0.515814
0.485934
0.490528
0.536315
0.585348
0.576246
0.45924
0.238664
-0.00511169
-0.153257
-0.123706
0.0763681
0.491149
0.59686
0.594757
0.455081
0.212674
-0.0295521
-0.150607
-0.0852305
0.136767
0.402137
0.574669
0.565806
0.369071
0.0676122
-0.192452
-0.279963
-0.151536
0.127614
0.415467
0.571143
0.52334
0.29038
-0.0230966
-0.265248
-0.318268
-0.157464
0.139647
0.427894
0.570957
0.505564
0.25967
-0.0518278
-0.271895
-0.287516
-0.0891276
0.225134
0.498591
0.601679
0.487967
0.205158
-0.115331
-0.316171
-0.29992
-0.0753119
0.246036
0.504327
0.577846
0.431556
0.126485
-0.190394
-0.353896
-0.277655
-0.00171133
0.326946
0.537056
0.529299
0.317526
0.0198074
-0.198007
-0.218532
-0.0394288
0.232182
0.453683
0.5442
0.522784
0.467122
0.442456
0.452568
0.442423
0.348592
0.160294
-0.0564236
-0.195869
-0.181184
-0.0108758
0.234142
0.42558
0.456605
0.301486
0.0325539
-0.216458
-0.326408
-0.251071
-0.0290233
0.240004
0.452692
0.560142
0.575261
0.53836
0.483028
0.423314
0.362074
0.308338
0.284548
0.312701
0.389888
0.476048
0.504857
0.411699
0.173494
-0.153992
-0.445732
-0.575405
-0.480435
-0.192411
0.161081
0.413822
0.455542
0.282291
-0.00641553
-0.252668
-0.325876
-0.189478
0.0900443
0.382599
0.573192
0.625181
0.57594
0.494486
0.442117
0.443061
0.473121
0.479089
0.423861
0.32473
0.246201
0.250256
0.348452
0.504701
0.532827
0.544132
0.506721
0.414219
0.305065
0.244236
0.276052
0.390628
0.529137
0.61977
0.613384
0.501033
0.323636
0.16495
0.10838
0.184444
0.351673
0.522495
0.614525
0.58674
0.448201
0.258592
0.110497
0.0807045
0.184828
0.368911
0.540866
0.621277
0.575716
0.42157
0.227699
0.0920885
0.0882071
0.219889
0.419269
0.587991
0.651043
0.582694
0.409274
0.207369
0.0762581
0.0827286
0.221181
0.416459
0.567572
0.601263
0.497602
0.296373
0.0936502
0.000246717
0.0733348
0.277708
0.505843
0.644362
0.63509
0.49339
0.298757
0.159978
0.151399
0.262652
0.405124
0.47553
0.431385
0.317456
0.225657
0.223855
0.306595
0.402423
0.431717
0.368214
0.257199
0.181994
0.205875
0.32798
0.477306
0.546999
0.450385
0.174688
-0.190445
-0.490427
-0.598662
-0.477726
-0.185128
0.151422
0.402302
0.512707
0.515411
0.483786
0.475634
0.502678
0.538535
0.552865
0.540197
0.520527
0.517482
0.534275
0.541918
0.488505
0.333978
0.0948429
-0.143571
-0.271139
-0.218232
-0.000569296
0.274006
0.455671
0.433707
0.191632
-0.173814
-0.489526
-0.604452
-0.465114
-0.130699
0.24967
0.515972
0.588877
0.489811
0.308856
0.160228
0.126061
0.214582
0.363971
0.48953
0.542575
0.533178
0.503706
0.490431
0.324606
0.294366
0.344806
0.434638
0.507994
0.535318
0.525972
0.506306
0.495491
0.499821
0.516016
0.531827
0.529264
0.499538
0.457225
0.431033
0.438107
0.471582
0.511244
0.539392
0.544743
0.521255
0.475587
0.432334
0.419189
0.444119
0.490467
0.532891
0.553823
0.545433
0.507198
0.452319
0.409774
0.406182
0.443657
0.499493
0.546287
0.567868
0.557854
0.516569
0.458777
0.414796
0.410679
0.44634
0.496304
0.530364
0.530279
0.491472
0.424474
0.360882
0.34277
0.391124
0.483872
0.569558
0.604676
0.578464
0.511675
0.444633
0.419093
0.450567
0.507204
0.51949
0.42682
0.233102
0.0209551
-0.097856
-0.0566533
0.122224
0.340914
0.493828
0.536963
0.501651
0.458679
0.467653
0.537331
0.61625
0.618236
0.468605
0.157596
-0.22363
-0.519116
-0.605723
-0.456685
-0.147052
0.176512
0.374444
0.398517
0.308286
0.218263
0.219383
0.32547
0.476463
0.590091
0.619644
0.574963
0.504765
0.461163
0.462806
0.479166
0.454815
0.360563
0.228121
0.134456
0.147578
0.274488
0.445538
0.547754
0.48344
0.222983
-0.158219
-0.498843
-0.644719
-0.530343
-0.203716
0.184357
0.453578
0.497167
0.322633
0.0367022
-0.20291
-0.269927
-0.132104
0.141891
0.423541
0.601374
0.636978
0.558649
0.430158
-0.00797762
-0.0805329
0.0192549
0.236801
0.464874
0.607888
0.627345
0.539571
0.397455
0.273521
0.23006
0.286014
0.406992
0.528369
0.595772
0.588431
0.515526
0.409229
0.319115
0.291765
0.342353
0.443301
0.542527
0.596509
0.587677
0.521417
0.42379
0.339302
0.311686
0.355687
0.445656
0.533183
0.578055
0.563678
0.495107
0.399104
0.321455
0.305045
0.360776
0.458529
0.548012
0.590568
0.57268
0.501693
0.404333
0.323416
0.297468
0.335827
0.413956
0.493458
0.54589
0.557456
0.52249
0.448053
0.362516
0.306322
0.309732
0.37694
0.483161
0.582028
0.616206
0.530801
0.304583
-0.00938662
-0.288125
-0.406882
-0.309533
-0.0387037
0.280691
0.516284
0.60903
0.586146
0.521859
0.489381
0.519275
0.58047
0.597158
0.493875
0.25131
-0.0569322
-0.293584
-0.34612
-0.195202
0.074086
0.311622
0.385901
0.263883
0.0328594
-0.15249
-0.170011
-0.00274762
0.258242
0.475321
0.552249
0.482569
0.339148
0.227236
0.219702
0.312349
0.43476
0.508668
0.507196
0.466611
0.447858
0.485749
0.561283
0.609198
0.551525
0.344621
0.0266571
-0.278492
-0.430271
-0.354588
-0.0848557
0.242708
0.455951
0.441353
0.19473
-0.172573
-0.479981
-0.57827
-0.420815
-0.0753618
0.302511
0.552324
0.595198
0.448932
0.204587
-0.352871
-0.452744
-0.31352
0.00095318
0.344038
0.564603
0.585035
0.41768
0.150509
-0.0831694
-0.167874
-0.0639868
0.175732
0.433302
0.590624
0.586045
0.42758
0.187939
-0.0175153
-0.0865507
0.0152087
0.236877
0.468857
0.603906
0.586747
0.425928
0.191632
-0.00504003
-0.0667569
0.0370307
0.253607
0.474233
0.594498
0.561973
0.388611
0.149576
-0.0408989
-0.0879463
0.0324033
0.260776
0.485261
0.603276
0.567256
0.393701
0.159251
-0.0247654
-0.0690973
0.0456819
0.260845
0.472049
0.586491
0.560451
0.403564
0.176452
-0.0248686
-0.112447
-0.0474848
0.144415
0.381922
0.563157
0.606221
0.46771
0.161639
-0.214976
-0.509958
-0.599496
-0.445553
-0.110843
0.258623
0.512636
0.584248
0.503851
0.362542
0.263244
0.26708
0.360412
0.465586
0.490928
0.394176
0.219401
0.073887
0.0542657
0.178488
0.368783
0.491932
0.434899
0.177054
-0.176793
-0.445845
-0.489405
-0.288746
0.0454619
0.332744
0.432065
0.319169
0.0881809
-0.105515
-0.138282
0.0122608
0.265006
0.494347
0.614201
0.620569
0.568374
0.523219
0.521334
0.548486
0.547871
0.460197
0.278049
0.0709291
-0.0523797
-0.0167997
0.165878
0.393675
0.527367
0.463732
0.186684
-0.207162
-0.541986
-0.664092
-0.518116
-0.165335
0.231655
0.489098
0.502828
0.282274
-0.0602194
-0.549855
-0.662567
-0.50629
-0.147748
0.247217
0.494747
0.4921
0.251023
-0.111099
-0.416827
-0.52083
-0.376469
-0.0494583
0.304818
0.519781
0.503664
0.268071
-0.0769756
-0.364021
-0.455446
-0.309052
0.00701334
0.340008
0.53169
0.49802
0.254584
-0.0875388
-0.363711
-0.442069
-0.286094
0.0315192
0.356339
0.532669
0.480937
0.222042
-0.12677
-0.398113
-0.463731
-0.293755
0.0332173
0.360017
0.532905
0.477463
0.219826
-0.120611
-0.379233
-0.433664
-0.260295
0.0588943
0.371134
0.533377
0.478674
0.229499
-0.109901
-0.391441
-0.496886
-0.385952
-0.103306
0.233729
0.484748
0.551079
0.400621
0.0749542
-0.301999
-0.568787
-0.612691
-0.415248
-0.057922
0.30157
0.510827
0.504135
0.318135
0.0668156
-0.11141
-0.125942
0.0229229
0.250327
0.437242
0.506558
0.469348
0.405186
0.398483
0.476571
0.587178
0.626509
0.499209
0.185811
-0.212345
-0.512926
-0.571116
-0.366452
-0.0156819
0.282544
0.364044
0.192502
-0.125228
-0.399432
-0.471723
-0.298589
0.0376012
0.376554
0.578859
0.60219
0.497048
0.361603
0.28856
0.314466
0.40182
0.471552
0.465949
0.394625
0.32454
0.324708
0.412114
0.535684
0.604052
0.533206
0.29336
-0.0527348
-0.361425
-0.49008
-0.376951
-0.0724075
0.273186
0.483856
0.451378
0.178052
-0.218264
-0.509337
-0.621418
-0.47182
-0.125774
0.251843
0.475987
0.44003
0.155892
-0.247324
-0.57633
-0.679494
-0.512449
-0.147714
0.243496
0.473688
0.438842
0.155563
-0.243547
-0.56476
-0.658568
-0.484311
-0.119534
0.261945
0.476053
0.425241
0.132334
-0.2657
-0.575994
-0.654517
-0.46656
-0.0951118
0.282942
0.485732
0.42091
0.116568
-0.285842
-0.592553
-0.663144
-0.467812
-0.0933522
0.282123
0.479055
0.409671
0.106847
-0.285926
-0.577755
-0.634014
-0.431541
-0.0621719
0.299218
0.485155
0.418209
0.129315
-0.25427
-0.561191
-0.66474
-0.529344
-0.209476
0.16451
0.44123
0.522681
0.389608
0.0974608
-0.228244
-0.438467
-0.43752
-0.223894
0.108805
0.406851
0.532891
0.428692
0.134855
-0.216529
-0.460808
-0.489927
-0.295696
0.0335484
0.352778
0.546555
0.594958
0.560577
0.529609
0.553174
0.614491
0.638266
0.537833
0.281194
-0.0576018
-0.322003
-0.375923
-0.194196
0.115972
0.367844
0.403508
0.182459
-0.191796
-0.521512
-0.633951
-0.472202
-0.113143
0.266956
0.492952
0.491053
0.306959
0.0691813
-0.0780696
-0.0540394
0.120726
0.3473
0.516111
0.577512
0.558269
0.521868
0.518272
0.554162
0.590434
0.564184
0.429858
0.205014
-0.0189996
-0.128175
-0.059316
0.157134
0.405038
0.543354
0.477443
0.200816
-0.185886
-0.246791
-0.343262
-0.222502
0.0596087
0.36149
0.527856
0.467961
0.190812
-0.188356
-0.492372
-0.580305
-0.413111
-0.065278
0.297786
0.501309
0.451032
0.16594
-0.224241
-0.531545
-0.612577
-0.432144
-0.0717454
0.296316
0.495305
0.434787
0.140731
-0.250477
-0.549411
-0.616716
-0.422554
-0.0534802
0.315312
0.509157
0.44246
0.14491
-0.245791
-0.541542
-0.605862
-0.411564
-0.0466411
0.314558
0.50036
0.428845
0.133254
-0.247479
-0.528628
-0.579834
-0.380411
-0.0223748
0.324664
0.502568
0.441542
0.174376
-0.177661
-0.454443
-0.539469
-0.404833
-0.108857
0.225756
0.468063
0.542201
0.442605
0.222404
-0.0161233
-0.156541
-0.12679
0.0641195
0.328023
0.53652
0.579543
0.406438
0.0527933
-0.348604
-0.626271
-0.6667
-0.456576
-0.0834136
0.292495
0.527957
0.579804
0.503909
0.403024
0.364907
0.411545
0.488521
0.504357
0.399788
0.204492
0.0300395
-0.00796571
0.124831
0.351546
0.526464
0.520329
0.291463
-0.0796425
-0.417077
-0.552873
-0.42253
-0.0945376
0.257088
0.448291
0.388843
0.118459
-0.214584
-0.431094
-0.421453
-0.191415
0.1501
0.450491
0.605737
0.607323
0.517006
0.419852
0.381026
0.412586
0.470011
0.487283
0.43108
0.332215
0.263848
0.284888
0.39516
0.531901
0.605075
0.542274
0.325293
0.018199
0.123439
0.0566991
0.129512
0.309031
0.500576
0.599474
0.540882
0.326004
0.0346657
-0.199594
-0.262823
-0.123082
0.153652
0.432377
0.579827
0.527178
0.290548
-0.0281588
-0.277035
-0.335607
-0.17633
0.124614
0.421143
0.574227
0.517006
0.272466
-0.0500051
-0.295097
-0.344336
-0.174564
0.133823
0.432887
0.585789
0.529669
0.289509
-0.0267778
-0.267401
-0.316729
-0.152516
0.145943
0.43383
0.577951
0.518199
0.281585
-0.0240711
-0.251264
-0.291262
-0.127955
0.157973
0.429343
0.567602
0.525592
0.331574
0.0758783
-0.123305
-0.179176
-0.0753966
0.13551
0.361263
0.517625
0.564947
0.507844
0.381797
0.247512
0.174504
0.206955
0.337055
0.505339
0.626473
0.6215
0.443269
0.109828
-0.269779
-0.539177
-0.585687
-0.390926
-0.0397639
0.305924
0.495344
0.473895
0.296805
0.0909168
-0.0153641
0.0354464
0.203159
0.381069
0.469305
0.444884
0.370735
0.339385
0.401184
0.528032
0.632062
0.619526
0.445225
0.152275
-0.130137
-0.258908
-0.16781
0.0897287
0.362706
0.485865
0.368677
0.0405379
-0.350907
-0.615622
-0.630971
-0.390603
-0.0019765
0.358324
0.546396
0.524226
0.352797
0.151301
0.0393903
0.0745624
0.227074
0.407104
0.527063
0.557257
0.530155
0.500493
0.504195
0.540202
0.574203
0.557052
0.455314
0.285984
0.443367
0.4098
0.421945
0.481704
0.556144
0.59898
0.572163
0.464041
0.307269
0.174923
0.139058
0.223084
0.385895
0.545977
0.627153
0.590406
0.443398
0.244835
0.0890536
0.0561756
0.163942
0.357541
0.541404
0.632242
0.592756
0.437474
0.232452
0.0760147
0.0475012
0.161055
0.358433
0.543288
0.634932
0.599711
0.453328
0.258907
0.109529
0.0807234
0.186327
0.371055
0.543303
0.626582
0.589657
0.449105
0.266433
0.129257
0.105482
0.203362
0.368602
0.519486
0.59497
0.577244
0.485229
0.364274
0.271361
0.246619
0.290969
0.370862
0.445042
0.491069
0.509362
0.506847
0.486766
0.456445
0.4342
0.440456
0.482991
0.549178
0.605746
0.603324
0.492723
0.263389
-0.0196911
-0.23539
-0.279652
-0.127179
0.147835
0.399536
0.488963
0.359214
0.0654697
-0.245014
-0.41345
-0.358759
-0.110068
0.212327
0.465507
0.573847
0.559378
0.500592
0.472982
0.505773
0.569839
0.600236
0.540417
0.388551
0.214813
0.121738
0.171495
0.337505
0.513686
0.573451
0.435492
0.111244
-0.277308
-0.554254
-0.59418
-0.380329
-0.0123856
0.330695
0.489638
0.407313
0.141796
-0.161801
-0.343208
-0.312961
-0.0879287
0.225184
0.489462
0.618449
0.609254
0.516215
0.413191
0.361211
0.380144
0.440479
0.487294
0.484382
0.609493
0.596262
0.537353
0.474458
0.440047
0.445956
0.477023
0.501654
0.498542
0.475697
0.459471
0.467301
0.495262
0.527293
0.548162
0.546225
0.514255
0.459653
0.410282
0.397496
0.430281
0.488902
0.542515
0.569363
0.560838
0.517793
0.455016
0.403431
0.392762
0.427906
0.485693
0.535217
0.558502
0.551793
0.517798
0.468043
0.426958
0.419035
0.44811
0.493926
0.530651
0.545366
0.537708
0.511147
0.474333
0.445044
0.439662
0.456611
0.477214
0.48624
0.487251
0.494145
0.51279
0.536416
0.553963
0.553843
0.52243
0.453763
0.367622
0.308456
0.315083
0.3875
0.483356
0.548908
0.554534
0.50722
0.443131
0.407379
0.423012
0.467542
0.482107
0.417536
0.284438
0.157155
0.122118
0.214416
0.386378
0.526704
0.519639
0.308209
-0.0595238
-0.432343
-0.640341
-0.591715
-0.306344
0.0909034
0.427471
0.587217
0.562599
0.428765
0.293775
0.244057
0.30081
0.415675
0.508592
0.525863
0.478196
0.426787
0.431331
0.503207
0.594708
0.625258
0.52467
0.280023
-0.0319794
-0.272554
-0.324744
-0.161711
0.133353
0.401727
0.494838
0.348217
0.0110377
-0.363946
-0.598137
-0.585969
-0.332782
0.0509688
0.396168
0.571065
0.542647
0.366307
0.152621
0.0196803
0.0341699
0.181183
0.380615
0.539881
0.621954
0.60378
0.460697
0.275383
0.143157
0.128096
0.231592
0.396042
0.542162
0.615218
0.602381
0.521192
0.409571
0.318721
0.292452
0.341724
0.437272
0.529499
0.579885
0.574814
0.519425
0.434391
0.356701
0.326041
0.359781
0.439662
0.524181
0.575801
0.576195
0.52389
0.434549
0.345241
0.301698
0.329416
0.414713
0.513639
0.580794
0.590341
0.537566
0.439136
0.336511
0.28183
0.306263
0.398292
0.510958
0.591264
0.604532
0.53988
0.414347
0.279358
0.204072
0.234503
0.361764
0.524589
0.644126
0.660944
0.551848
0.342563
0.115711
-0.0210122
0.00133052
0.167813
0.384356
0.534326
0.546002
0.422806
0.238163
0.0999885
0.0874011
0.201293
0.366472
0.486389
0.513894
0.477851
0.447617
0.474057
0.549702
0.60811
0.558925
0.342128
-0.0146368
-0.380896
-0.595117
-0.560976
-0.290072
0.0961834
0.418375
0.542986
0.444882
0.201463
-0.0461211
-0.164233
-0.0965342
0.115564
0.362536
0.534837
0.588294
0.553434
0.497296
0.477119
0.506976
0.550001
0.542334
0.440898
0.267855
0.109835
0.0618125
0.160568
0.354371
0.526553
0.557574
0.382774
0.0325085
-0.357993
-0.615153
-0.62703
-0.388511
-0.00492618
0.345125
0.507366
0.427781
0.160973
-0.153702
-0.355855
-0.347758
-0.133848
0.187615
0.474658
0.554047
0.503511
0.269755
-0.0264719
-0.237671
-0.262922
-0.0919286
0.194753
0.465445
0.608907
0.580943
0.404774
0.161255
-0.0357063
-0.0929467
0.0151666
0.235188
0.461723
0.594797
0.583906
0.435967
0.212904
0.0162191
-0.0599698
0.0214902
0.22175
0.444609
0.588312
0.592919
0.454429
0.22656
0.0106179
-0.0901727
-0.0262909
0.172343
0.409872
0.575603
0.598557
0.467851
0.235059
0.00466095
-0.112193
-0.0576203
0.143385
0.393907
0.575692
0.607758
0.471465
0.216495
-0.0448484
-0.186042
-0.135559
0.0853724
0.369554
0.5777
0.608542
0.434751
0.11629
-0.206632
-0.379263
-0.319093
-0.059202
0.26214
0.475228
0.475393
0.268767
-0.032551
-0.263583
-0.300341
-0.124579
0.173839
0.451775
0.605987
0.627741
0.579096
0.535882
0.538296
0.565767
0.548816
0.417683
0.166233
-0.117858
-0.299564
-0.283221
-0.0695087
0.235738
0.471089
0.508874
0.315913
-0.029343
-0.363569
-0.52681
-0.446758
-0.162244
0.194846
0.467548
0.565908
0.500746
0.355873
0.238615
0.222176
0.306621
0.426223
0.499807
0.49152
0.433951
0.395708
0.425685
0.516508
0.606574
0.61244
0.471179
0.18556
-0.149509
-0.387573
-0.418236
-0.225531
0.098536
0.389585
0.498291
0.361899
0.0284823
-0.352146
-0.600571
-0.605399
-0.363516
0.0211204
0.375985
0.495608
0.397902
0.089864
-0.282421
-0.541023
-0.569343
-0.354832
0.00969686
0.358128
0.537624
0.481275
0.220597
-0.125032
-0.393695
-0.463258
-0.303874
0.0132172
0.34086
0.530529
0.504226
0.274458
-0.0589755
-0.342359
-0.44555
-0.322488
-0.0269847
0.304348
0.518398
0.522405
0.312879
-0.0225953
-0.330766
-0.469033
-0.375464
-0.0907835
0.253244
0.495041
0.52722
0.33496
-0.000319692
-0.323887
-0.483885
-0.407783
-0.128388
0.225258
0.485863
0.535336
0.349294
0.0040821
-0.341905
-0.525225
-0.462287
-0.181063
0.185392
0.456913
0.501981
0.293431
-0.0796824
-0.438365
-0.606395
-0.503386
-0.178028
0.204972
0.446382
0.425133
0.152276
-0.232882
-0.528861
-0.586944
-0.379263
-0.00254138
0.367381
0.58228
0.604625
0.498146
0.372047
0.317936
0.357679
0.434359
0.458016
0.378608
0.230929
0.11169
0.108872
0.239168
0.430545
0.559532
0.517553
0.266664
-0.123559
-0.489872
-0.668437
-0.58373
-0.273708
0.119257
0.41255
0.488739
0.347727
0.092681
-0.123081
-0.179007
-0.0484852
0.197343
0.436642
0.575116
0.597227
0.552205
0.507083
0.505082
0.542347
0.570052
0.524052
0.37375
0.161208
-0.0118594
-0.0488732
0.0780323
0.304643
0.503991
0.553087
0.389302
0.0445283
-0.346596
-0.609999
-0.630888
-0.399765
-0.0178879
0.334976
0.502249
0.366942
0.0280673
-0.367032
-0.636694
-0.663733
-0.436576
-0.0517715
0.313266
0.490639
0.404892
0.0938157
-0.301343
-0.596274
-0.661329
-0.470019
-0.103204
0.271755
0.482521
0.438788
0.159173
-0.232776
-0.555476
-0.665232
-0.516341
-0.170366
0.216711
0.465326
0.46623
0.218233
-0.170824
-0.52048
-0.672074
-0.561604
-0.234771
0.161219
0.440105
0.476307
0.253919
-0.129375
-0.494107
-0.671906
-0.586561
-0.273478
0.126681
0.425059
0.486208
0.283743
-0.0933298
-0.467832
-0.664658
-0.598856
-0.300411
0.0919193
0.386542
0.443923
0.240835
-0.122279
-0.459515
-0.59813
-0.46723
-0.125219
0.25839
0.487528
0.446742
0.149451
-0.262652
-0.582466
-0.655393
-0.449718
-0.0636963
0.313356
0.510409
0.472858
0.270698
0.0487303
-0.0541662
0.0175843
0.21245
0.412715
0.518208
0.511784
0.453795
0.424732
0.466424
0.554102
0.610057
0.546461
0.31777
-0.0306687
-0.361732
-0.525252
-0.446217
-0.160205
0.192985
0.43321
0.439599
0.207758
-0.146683
-0.441094
-0.529046
-0.370162
-0.0377257
0.31602
0.546783
0.599002
0.510704
0.373021
0.281781
0.28803
0.37207
0.46183
0.486945
0.432879
0.350834
0.315456
0.368176
0.487027
0.598076
0.614396
0.476835
0.192591
-0.141915
-0.380575
-0.413401
-0.223748
0.0984958
0.390619
0.564634
0.425283
0.116436
-0.240288
-0.484652
-0.507669
-0.298783
0.0488336
0.370516
0.514422
0.412907
0.10291
-0.279495
-0.557088
-0.60692
-0.408397
-0.0465677
0.313301
0.507282
0.452703
0.170972
-0.215484
-0.528485
-0.628388
-0.473628
-0.12928
0.249249
0.488439
0.485834
0.242967
-0.134771
-0.472366
-0.615672
-0.503459
-0.183261
0.199858
0.467338
0.501503
0.288826
-0.0777221
-0.42737
-0.598071
-0.515828
-0.216084
0.165108
0.449471
0.511926
0.329557
-0.0155147
-0.360996
-0.544359
-0.485415
-0.213033
0.144114
0.414282
0.476896
0.315893
0.020275
-0.25165
-0.353306
-0.226908
0.0703296
0.390795
0.57424
0.528682
0.26349
-0.1058
-0.399855
-0.475221
-0.299296
0.0337865
0.342257
0.45901
0.325969
0.0194849
-0.289005
-0.430795
-0.331921
-0.0406875
0.30191
0.548675
0.637147
0.601932
0.525338
0.482275
0.499325
0.54098
0.532846
0.413707
0.191462
-0.041896
-0.164338
-0.1038
0.115152
0.375435
0.525826
0.459988
0.169585
-0.234449
-0.566053
-0.673253
-0.51088
-0.151286
0.239293
0.487554
0.511123
0.341616
0.0951573
-0.0844428
-0.101407
0.0463693
0.276211
0.474799
0.570808
0.569366
0.526381
0.500755
0.519773
0.566914
0.591407
0.535977
0.378011
0.163151
-0.00823762
-0.0434054
0.0825804
0.306297
0.5057
0.614233
0.515318
0.297766
0.038683
-0.144345
-0.161753
-0.00256631
0.257318
0.49065
0.585369
0.491904
0.237865
-0.0713247
-0.292684
-0.322922
-0.147955
0.152612
0.43984
0.586912
0.534138
0.300541
-0.0169679
-0.273681
-0.3511
-0.214785
0.0734758
0.380634
0.569705
0.564841
0.369514
0.0655291
-0.20832
-0.323501
-0.227316
0.0359714
0.343094
0.553573
0.58002
0.413805
0.124986
-0.154663
-0.293053
-0.226542
0.0131499
0.312592
0.533737
0.585337
0.452371
0.194555
-0.068929
-0.212573
-0.170536
0.0337806
0.299809
0.502535
0.55984
0.463159
0.272467
0.092485
0.0227672
0.104067
0.29747
0.506195
0.6282
0.601532
0.423957
0.164528
-0.0523479
-0.113458
0.0125904
0.249535
0.447218
0.464343
0.247754
-0.127651
-0.484661
-0.648164
-0.54003
-0.205475
0.203616
0.509393
0.616857
0.544902
0.387383
0.258689
0.234721
0.313068
0.42107
0.46974
0.420798
0.315688
0.242125
0.268475
0.394809
0.548056
0.621104
0.527515
0.249523
-0.127831
-0.442371
-0.55086
-0.405982
-0.0765528
0.274298
0.472346
0.426604
0.16438
-0.181043
-0.433959
-0.472934
-0.28246
0.050078
0.377079
0.576392
0.614069
0.534242
0.417786
0.342842
0.348105
0.414383
0.480513
0.488297
0.428523
0.349467
0.318303
0.369825
0.481515
0.587367
0.561746
0.54264
0.460247
0.339039
0.241871
0.228209
0.312016
0.451795
0.576271
0.623353
0.5634
0.408526
0.218598
0.0827201
0.0698863
0.187836
0.379083
0.553924
0.638659
0.601738
0.455272
0.256239
0.094344
0.0480858
0.139778
0.323637
0.51191
0.623767
0.618967
0.501358
0.31751
0.149636
0.0794338
0.141628
0.304322
0.487641
0.609711
0.624464
0.528907
0.361092
0.195307
0.111771
0.151378
0.292197
0.463229
0.586963
0.617786
0.55023
0.414223
0.270426
0.187561
0.204559
0.308539
0.445091
0.55308
0.596408
0.570866
0.497423
0.414902
0.364433
0.36844
0.421342
0.496709
0.560139
0.57774
0.527231
0.420524
0.314243
0.279133
0.346259
0.474478
0.564803
0.512863
0.270925
-0.102689
-0.451758
-0.61411
-0.513899
-0.193684
0.195668
0.470254
0.521809
0.361517
0.0991406
-0.112703
-0.159814
-0.0235042
0.218111
0.440822
0.555857
0.558993
0.510857
0.483195
0.512691
0.58063
0.624237
0.571548
0.387729
0.116672
-0.124297
-0.214192
-0.104377
0.149569
0.408982
0.524299
0.410467
0.0875195
-0.312328
-0.605736
-0.663635
-0.463569
-0.0911376
0.289041
0.521623
0.543577
0.391156
0.168329
0.000730244
-0.0261226
0.0932393
0.290305
0.46744
0.559526
0.566162
0.53161
0.503912
0.50778
0.53724
0.349749
0.434795
0.506642
0.533772
0.523744
0.505294
0.499436
0.50879
0.525009
0.536828
0.531562
0.500126
0.450147
0.40916
0.404801
0.440981
0.495907
0.541653
0.562198
0.553388
0.516176
0.460824
0.412543
0.398953
0.427537
0.479109
0.524978
0.54818
0.546425
0.522041
0.480927
0.440096
0.422916
0.44
0.478621
0.514792
0.533764
0.534838
0.520727
0.493577
0.462923
0.446177
0.453612
0.476849
0.497938
0.508257
0.512554
0.515625
0.51422
0.50496
0.491957
0.480879
0.471617
0.464088
0.467315
0.493149
0.53873
0.580543
0.588789
0.546536
0.460548
0.364486
0.307826
0.32484
0.405308
0.498109
0.551707
0.555784
0.542756
0.551171
0.586486
0.607877
0.548286
0.360853
0.0722852
-0.205743
-0.34003
-0.260124
-0.0018545
0.299983
0.480277
0.435789
0.174982
-0.180712
-0.454499
-0.514066
-0.331936
0.00974207
0.357479
0.577259
0.628166
0.555973
0.447222
0.383067
0.398907
0.467436
0.518904
0.490648
0.378084
0.246091
0.184728
0.24459
0.399084
0.554923
0.601571
0.464996
0.150375
-0.234554
-0.524015
-0.592054
-0.411206
-0.0620168
0.292155
0.489198
0.452209
0.210895
-0.113581
-0.361125
-0.416708
-0.259102
0.040175
0.351193
0.557414
0.615678
0.553651
0.436183
0.335948
0.304632
0.00458928
0.194823
0.414392
0.575233
0.633987
0.595059
0.490968
0.370656
0.287989
0.279201
0.343597
0.444781
0.534462
0.580074
0.57174
0.513881
0.424732
0.340245
0.30174
0.330411
0.411872
0.50548
0.570765
0.585344
0.543717
0.45609
0.354998
0.288603
0.293091
0.36758
0.474086
0.562622
0.59812
0.567583
0.478419
0.363413
0.276189
0.263129
0.332738
0.449392
0.556419
0.608187
0.584299
0.489627
0.358867
0.252924
0.228738
0.302153
0.435663
0.560965
0.618296
0.580871
0.460713
0.310772
0.209726
0.217604
0.332877
0.487142
0.583478
0.551446
0.38573
0.158122
-0.0117787
-0.0288442
0.115024
0.337534
0.524553
0.607068
0.592845
0.539923
0.505983
0.5059
0.502176
0.439299
0.301616
0.143953
0.0592539
0.109908
0.277674
0.463311
0.538214
0.413541
0.0932617
-0.304772
-0.602322
-0.666358
-0.468077
-0.0905724
0.298219
0.537536
0.562555
0.412889
0.197617
0.043888
0.0327997
0.160739
0.349075
0.496478
0.546149
0.515506
0.46875
0.465252
0.520373
0.596126
0.621738
0.530867
0.306008
0.0123922
-0.222924
-0.287476
-0.148358
0.127259
0.397807
0.519919
0.417052
0.110168
-0.277801
-0.574369
-0.65354
-0.485847
-0.139787
0.238247
0.49614
0.557489
0.437166
0.217356
0.0154007
-0.0678682
-0.352179
-0.0847226
0.246809
0.505842
0.603953
0.526554
0.320714
0.0808428
-0.0838341
-0.100032
0.0373754
0.264532
0.479695
0.595734
0.572593
0.419257
0.193558
-0.00854794
-0.0954209
-0.0263601
0.168573
0.400845
0.568645
0.605198
0.495385
0.277688
0.0421925
-0.103535
-0.0906809
0.0760847
0.3193
0.526974
0.610384
0.535834
0.329382
0.0764464
-0.106517
-0.132128
0.0128726
0.260548
0.494252
0.610009
0.559429
0.359087
0.0917849
-0.118019
-0.168004
-0.0328216
0.222116
0.470968
0.594792
0.536729
0.319313
0.0432521
-0.150663
-0.1609
0.0143123
0.272061
0.457977
0.454045
0.244228
-0.0694551
-0.315241
-0.356383
-0.173511
0.128466
0.388009
0.49258
0.439001
0.314104
0.228383
0.244005
0.339943
0.438599
0.474488
0.44656
0.409959
0.423262
0.498029
0.583712
0.593405
0.452396
0.152487
-0.213365
-0.488759
-0.549201
-0.365567
-0.0188528
0.326071
0.507668
0.452851
0.199386
-0.122114
-0.34889
-0.372459
-0.184621
0.125894
0.419094
0.587513
0.610538
0.539587
0.454043
0.418522
0.449712
0.508679
0.5268
0.455224
0.308828
0.165498
0.114302
0.194858
0.368714
0.536468
0.588965
0.456663
0.145619
-0.24114
-0.543313
-0.635588
-0.482762
-0.148108
0.2211
0.462402
0.482958
0.287721
-0.0288019
-0.316157
-0.44188
-0.570805
-0.271741
0.11257
0.416325
0.519547
0.393935
0.100519
-0.228341
-0.445029
-0.457755
-0.261386
0.0617874
0.370421
0.534626
0.492152
0.258731
-0.0729157
-0.359445
-0.476625
-0.374849
-0.0943817
0.243407
0.489166
0.540698
0.376375
0.0592298
-0.274043
-0.473793
-0.453047
-0.219323
0.125511
0.423995
0.544471
0.436611
0.142148
-0.211049
-0.460648
-0.494747
-0.297737
0.0443735
0.373369
0.539255
0.470532
0.193149
-0.171779
-0.453234
-0.521134
-0.344882
-0.00403082
0.337646
0.515324
0.446944
0.162168
-0.20265
-0.463074
-0.491072
-0.279493
0.0540682
0.320184
0.366107
0.164552
-0.169779
-0.442406
-0.499331
-0.316746
-0.00912095
0.240781
0.30131
0.171842
-0.0302584
-0.152252
-0.101869
0.10272
0.353848
0.53509
0.599161
0.578219
0.539806
0.534572
0.562578
0.572562
0.496021
0.302732
0.0440103
-0.163661
-0.212501
-0.0707658
0.193446
0.439289
0.526982
0.386634
0.0524593
-0.336484
-0.603081
-0.631265
-0.409796
-0.0326763
0.334535
0.547073
0.557286
0.413922
0.224738
0.104842
0.117959
0.246416
0.408485
0.514241
0.526136
0.476078
0.430838
0.441828
0.512513
0.596383
0.621004
0.522687
0.286003
-0.0240058
-0.280732
-0.36965
-0.250019
0.0248988
0.3238
0.500194
0.462981
0.208613
-0.168772
-0.506621
-0.660684
-0.559853
-0.273393
0.0996713
0.38973
0.468902
0.303452
-0.038921
-0.407495
-0.64001
-0.64239
-0.412992
-0.0426289
0.309037
0.491964
0.43445
0.157807
-0.225479
-0.548659
-0.67563
-0.556263
-0.235245
0.152377
0.434751
0.492367
0.301229
-0.062124
-0.437831
-0.658686
-0.632925
-0.369636
0.020738
0.361023
0.499088
0.376636
0.0433876
-0.352522
-0.629248
-0.666881
-0.449225
-0.0673594
0.304069
0.493929
0.41944
0.110699
-0.293952
-0.604124
-0.680017
-0.48891
-0.113066
0.270294
0.476395
0.410738
0.103801
-0.295777
-0.587245
-0.631049
-0.412861
-0.0475222
0.268461
0.370453
0.222593
-0.0693653
-0.321536
-0.385738
-0.238603
0.00841041
0.179022
0.149925
-0.0657538
-0.32869
-0.467009
-0.381705
-0.0981327
0.249705
0.505597
0.590936
0.530929
0.415509
0.340387
0.351652
0.421734
0.474518
0.446305
0.339729
0.22517
0.188335
0.268256
0.42695
0.56623
0.5789
0.401034
0.0547629
-0.335143
-0.600572
-0.628365
-0.40722
-0.0328203
0.322294
0.500645
0.441765
0.196319
-0.100022
-0.291587
-0.284241
-0.0842237
0.211978
0.471541
0.605997
0.610718
0.541171
0.469724
0.448564
0.484096
0.534195
0.533313
0.43756
0.265675
0.0985337
0.0287216
0.101338
0.284805
0.483248
0.584601
0.510117
0.246028
-0.131474
-0.47277
-0.636679
-0.32181
-0.0846885
0.22301
0.453523