# vtk DataFile Version 3.0
PFC simulation results
ASCII
DATASET STRUCTURED_POINTS
DIMENSIONS 128 128 1
ORIGIN 0 0 0
SPACING 1 1 1
POINT_DATA 16384
SCALARS psi double
LOOKUP_TABLE default
0.183664
0.461927
0.509439
0.294208
-0.0951649
-0.475092
-0.664004
-0.577459
-0.256196
0.143439
0.418814
0.434272
0.183403
-0.208401
-0.539373
-0.644423
-0.473354
-0.104907
0.280287
0.493032
0.43524
0.132303
-0.274544
-0.588862
-0.666157
-0.473355
-0.0957685
0.286915
0.49086
0.423894
0.116891
-0.283312
-0.577365
-0.623539
-0.401051
-0.0179577
0.32893
0.461168
0.311865
-0.0486593
-0.439073
-0.662524
-0.610669
-0.299927
0.131146
0.479881
0.592951
0.428714
0.0623905
-0.32794
-0.545258
-0.488552
-0.20118
0.150161
0.364372
0.323011
0.0496595
-0.303166
-0.538941
-0.53324
-0.291776
0.0628898
0.367047
0.524879
0.553101
0.530336
0.516413
0.504169
0.429969
0.232933
-0.0777814
-0.403844
-0.613726
-0.618714
-0.408112
-0.0573685
0.295141
0.526153
0.596046
0.545495
0.451849
0.386102
0.38226
0.427946
0.479981
0.493941
0.446567
0.338995
0.187965
0.0165819
-0.150623
-0.2867
-0.358147
-0.328922
-0.182654
0.0481388
0.27909
0.411499
0.379394
0.180241
-0.110363
-0.361436
-0.454412
-0.341925
-0.0661276
0.256916
0.498957
0.595225
0.564595
0.47716
0.410127
0.406569
0.451539
0.485402
0.452562
0.352658
0.248481
0.219293
0.299159
0.446671
0.564876
0.553717
0.361505
0.0261474
-0.318705
-0.512762
-0.462457
-0.186448
0.337911
0.533873
0.542609
0.333912
-0.020365
-0.360804
-0.524183
-0.433679
-0.131592
0.232627
0.473021
0.46821
0.214358
-0.169807
-0.491688
-0.592412
-0.424746
-0.0680271
0.300989
0.500308
0.43742
0.13968
-0.25356
-0.551207
-0.615063
-0.417954
-0.0490297
0.314954
0.499538
0.421796
0.118085
-0.264684
-0.533493
-0.556147
-0.321228
0.0580101
0.390241
0.510384
0.360463
0.00876595
-0.372475
-0.594063
-0.550481
-0.258081
0.148964
0.477025
0.580362
0.419724
0.0679857
-0.303089
-0.502908
-0.433512
-0.139279
0.214178
0.430308
0.394303
0.126554
-0.228016
-0.475812
-0.487591
-0.26141
0.0864397
0.394498
0.563256
0.600886
0.577244
0.549334
0.516095
0.425774
0.2287
-0.0611761
-0.350231
-0.518707
-0.491514
-0.272037
0.053055
0.344728
0.487887
0.452993
0.297653
0.126612
0.0356781
0.0671205
0.19758
0.358473
0.479102
0.524357
0.498761
0.425205
0.324828
0.211225
0.098101
0.010738
-0.0142298
0.0501789
0.191395
0.346936
0.428072
0.360765
0.126295
-0.208496
-0.507634
-0.639409
-0.541303
-0.243988
0.13004
0.421552
0.528217
0.449104
0.267189
0.104638
0.0588926
0.150113
0.317566
0.466064
0.533294
0.526177
0.498653
0.500808
0.542382
0.587459
0.574821
0.454052
0.229572
-0.0172003
-0.16648
-0.136044
0.0661811
0.488569
0.593825
0.585568
0.435084
0.182257
-0.0640406
-0.180687
-0.104957
0.128324
0.400503
0.57193
0.553966
0.343508
0.030165
-0.233835
-0.315976
-0.176061
0.115295
0.410487
0.565733
0.510944
0.269175
-0.0487724
-0.287722
-0.331602
-0.160426
0.1432
0.431161
0.568189
0.494974
0.244522
-0.0642401
-0.274441
-0.277671
-0.0705426
0.244259
0.510267
0.602723
0.481167
0.198248
-0.113021
-0.299064
-0.269276
-0.0386789
0.279007
0.529587
0.601698
0.467095
0.184717
-0.108105
-0.256342
-0.179681
0.0796753
0.379406
0.560302
0.533702
0.316308
0.0223733
-0.189615
-0.208943
-0.0352316
0.228041
0.444461
0.537212
0.524687
0.479015
0.457047
0.456411
0.423628
0.30608
0.107991
-0.096145
-0.206144
-0.159857
0.0298543
0.274376
0.448008
0.454043
0.276735
-0.00587343
-0.259358
-0.36792
-0.288868
-0.0616259
0.214509
0.435575
0.551767
0.577029
0.554246
0.517835
0.477958
0.42955
0.374152
0.332516
0.333274
0.385829
0.461385
0.497982
0.42704
0.214189
-0.0997895
-0.399137
-0.554399
-0.491463
-0.227692
0.120803
0.388179
0.453433
0.299369
0.0157097
-0.241438
-0.334116
-0.214916
0.058212
0.357293
0.561641
0.626527
0.584987
0.505895
0.452314
0.450365
0.476871
0.478819
0.41935
0.316641
0.236438
0.241511
0.342872
0.514728
0.544314
0.550526
0.501939
0.396659
0.279324
0.218709
0.25839
0.384051
0.531037
0.622955
0.609103
0.482761
0.29092
0.124518
0.0705933
0.157917
0.339376
0.520751
0.615434
0.582421
0.434674
0.237849
0.0889792
0.0649197
0.177634
0.368485
0.542377
0.619977
0.569438
0.412002
0.219892
0.0913428
0.096238
0.2334
0.431991
0.594866
0.651261
0.579885
0.40998
0.217872
0.0982437
0.111004
0.245803
0.429052
0.568568
0.60215
0.515709
0.344772
0.172101
0.0941943
0.160969
0.339599
0.533863
0.644809
0.622899
0.483344
0.299303
0.170697
0.165065
0.271003
0.404661
0.469907
0.429373
0.327697
0.250568
0.256293
0.332496
0.409163
0.416862
0.341995
0.236462
0.17957
0.223182
0.355482
0.501243
0.557421
0.445008
0.157679
-0.212119
-0.511424
-0.617719
-0.495904
-0.202317
0.137366
0.392827
0.506036
0.507679
0.473011
0.46471
0.498102
0.545229
0.569229
0.558185
0.531153
0.51712
0.527411
0.539512
0.502897
0.371339
0.148686
-0.0910542
-0.238932
-0.215899
-0.0230988
0.244062
0.438097
0.439875
0.219616
-0.138543
-0.465799
-0.604013
-0.488102
-0.16682
0.21604
0.496359
0.585547
0.49863
0.323651
0.175478
0.138424
0.222855
0.368075
0.489903
0.540298
0.530365
0.503398
0.495253
0.348291
0.32221
0.369795
0.449502
0.50931
0.525799
0.513003
0.498118
0.497355
0.511683
0.532377
0.544018
0.529453
0.485099
0.432702
0.405827
0.421548
0.468467
0.5199
0.553013
0.555033
0.522516
0.467404
0.419153
0.407008
0.437022
0.489176
0.535379
0.556968
0.546756
0.506223
0.450854
0.410286
0.409303
0.447316
0.500676
0.543727
0.563256
0.555089
0.519984
0.470667
0.432682
0.426314
0.448781
0.478768
0.496557
0.494925
0.473819
0.43783
0.404028
0.399493
0.438568
0.504356
0.55928
0.574142
0.544963
0.489908
0.440525
0.428603
0.463676
0.514492
0.517421
0.41974
0.231327
0.0348841
-0.0646353
-0.0107462
0.166399
0.369408
0.502199
0.531945
0.495049
0.459306
0.476618
0.549149
0.624213
0.619496
0.465531
0.15564
-0.219927
-0.509529
-0.594013
-0.447068
-0.140752
0.18169
0.380227
0.401156
0.298192
0.186433
0.165607
0.261268
0.419798
0.554502
0.606848
0.576711
0.509677
0.461552
0.459371
0.480593
0.470945
0.393189
0.267281
0.164249
0.1567
0.263656
0.427228
0.538682
0.495581
0.257167
-0.114622
-0.465217
-0.635012
-0.546985
-0.237633
0.149609
0.432017
0.49343
0.333404
0.0547794
-0.184797
-0.256004
-0.123225
0.146712
0.425919
0.603118
0.640393
0.566841
0.445954
0.0219952
-0.0439542
0.0563336
0.266676
0.4822
0.613149
0.626445
0.54071
0.407644
0.29542
0.260382
0.316655
0.428786
0.536154
0.591474
0.57969
0.511558
0.416607
0.338843
0.31895
0.368743
0.461375
0.549145
0.593774
0.580605
0.515083
0.421787
0.343001
0.320009
0.365768
0.454305
0.538364
0.579105
0.560224
0.486734
0.386591
0.307661
0.294086
0.356282
0.461986
0.557525
0.600135
0.572429
0.480992
0.358274
0.25822
0.229521
0.284325
0.390878
0.496373
0.55888
0.559853
0.500113
0.400963
0.304411
0.255908
0.280511
0.371175
0.492383
0.593293
0.619336
0.522598
0.290257
-0.0182003
-0.280005
-0.377473
-0.264099
0.00942804
0.317139
0.534823
0.613447
0.584318
0.519442
0.48733
0.515557
0.573993
0.590495
0.492864
0.262024
-0.0324472
-0.259602
-0.310636
-0.164715
0.0984609
0.334113
0.410489
0.28614
0.0376185
-0.182206
-0.239977
-0.100475
0.160605
0.406048
0.523687
0.487642
0.358173
0.239008
0.21341
0.29287
0.417103
0.505462
0.519146
0.483647
0.458164
0.48435
0.552878
0.604916
0.562493
0.374837
0.0680762
-0.24267
-0.414831
-0.364185
-0.112258
0.212715
0.437224
0.43937
0.206693
-0.1545
-0.463957
-0.568504
-0.417195
-0.0753815
0.301972
0.553729
0.600517
0.46063
0.225155
-0.330121
-0.422233
-0.27872
0.0334845
0.367525
0.576734
0.589287
0.421303
0.161514
-0.0597066
-0.132513
-0.023087
0.212301
0.457362
0.600742
0.587643
0.429481
0.198386
0.00538071
-0.053431
0.0513697
0.267082
0.486713
0.60855
0.581871
0.417475
0.186138
-0.00268892
-0.0554634
0.0542153
0.270778
0.485341
0.595799
0.552353
0.369575
0.125857
-0.062604
-0.101947
0.0286769
0.2658
0.493568
0.606711
0.556195
0.359734
0.100642
-0.09975
-0.145169
-0.0157812
0.222653
0.453353
0.572674
0.534317
0.355377
0.110634
-0.092
-0.162787
-0.0706724
0.146475
0.396765
0.575595
0.606024
0.452568
0.137811
-0.234924
-0.514403
-0.583935
-0.413761
-0.073714
0.288305
0.528326
0.587587
0.499668
0.354041
0.250828
0.250357
0.341405
0.450175
0.486914
0.407327
0.249613
0.114043
0.0939938
0.210783
0.394774
0.520166
0.473761
0.223439
-0.142267
-0.447931
-0.541112
-0.381253
-0.0565667
0.259652
0.409963
0.34325
0.13157
-0.0765527
-0.144962
-0.0285048
0.210976
0.452293
0.59706
0.624655
0.581094
0.532524
0.522142
0.54478
0.549394
0.47488
0.304654
0.0984044
-0.0372804
-0.0205131
0.147509
0.372277
0.51417
0.463611
0.197268
-0.193344
-0.532779
-0.663141
-0.524294
-0.174567
0.223954
0.485566
0.504159
0.289274
-0.0459177
-0.545934
-0.651175
-0.487713
-0.126092
0.265183
0.504065
0.492708
0.247828
-0.110039
-0.404398
-0.494599
-0.339927
-0.0116634
0.333363
0.533815
0.505478
0.265286
-0.0748881
-0.350293
-0.42911
-0.274992
0.0395854
0.361757
0.538262
0.49112
0.240535
-0.0996712
-0.366063
-0.431678
-0.265749
0.0540702
0.371682
0.53443
0.467658
0.197326
-0.154675
-0.419996
-0.47389
-0.291442
0.0437775
0.370955
0.535816
0.465392
0.188963
-0.167831
-0.433947
-0.484819
-0.298955
0.0357111
0.357657
0.517415
0.448387
0.181091
-0.16774
-0.44211
-0.525922
-0.387629
-0.0832395
0.26055
0.502548
0.550941
0.381881
0.044782
-0.331017
-0.585641
-0.613202
-0.402067
-0.0390217
0.316742
0.517181
0.502289
0.310754
0.0551296
-0.128234
-0.148773
-0.00360076
0.227029
0.425788
0.512011
0.48981
0.432067
0.421111
0.489543
0.595419
0.643698
0.538934
0.248321
-0.147614
-0.476642
-0.583654
-0.424842
-0.0908472
0.231923
0.365713
0.244562
-0.0537661
-0.350862
-0.474166
-0.353094
-0.0440942
0.304382
0.541468
0.602142
0.520108
0.387203
0.300454
0.308867
0.387536
0.461923
0.468364
0.405736
0.334667
0.3263
0.404891
0.525525
0.597866
0.534448
0.300342
-0.04596
-0.361289
-0.499289
-0.393422
-0.0908534
0.257988
0.473701
0.444786
0.173558
-0.219794
-0.527974
-0.634183
-0.475904
-0.122392
0.257118
0.476305
0.431386
0.139857
-0.263399
-0.583576
-0.672729
-0.492289
-0.121258
0.265221
0.482374
0.433017
0.140554
-0.257764
-0.56883
-0.648504
-0.462461
-0.0941025
0.2802
0.479887
0.413957
0.111724
-0.285153
-0.584493
-0.647831
-0.447017
-0.0711753
0.300073
0.488308
0.407681
0.0928606
-0.309765
-0.606895
-0.663392
-0.4553
-0.0745313
0.298301
0.485912
0.404979
0.0925731
-0.303982
-0.592248
-0.639444
-0.426363
-0.0502854
0.309286
0.484629
0.402413
0.100957
-0.284207
-0.578883
-0.660947
-0.502894
-0.168801
0.203779
0.465118
0.52529
0.372438
0.0677869
-0.259394
-0.461704
-0.449185
-0.22569
0.111716
0.408803
0.531204
0.424191
0.129162
-0.223773
-0.472301
-0.50849
-0.320832
0.00780213
0.335056
0.541677
0.600001
0.566006
0.524826
0.534577
0.590744
0.627946
0.559592
0.340004
0.0205401
-0.257024
-0.350436
-0.211863
0.0783706
0.348061
0.43024
0.257117
-0.0996125
-0.457083
-0.628733
-0.529144
-0.205891
0.182151
0.450578
0.499036
0.349151
0.116117
-0.0533985
-0.0622627
0.0880604
0.309963
0.491593
0.571
0.564057
0.531278
0.525593
0.558158
0.592807
0.566875
0.432623
0.204682
-0.026406
-0.143992
-0.0807198
0.135614
0.387745
0.530189
0.464483
0.184383
-0.205504
-0.282076
-0.375447
-0.245576
0.0472278
0.355577
0.520365
0.451547
0.163541
-0.220691
-0.519815
-0.595147
-0.413258
-0.0554064
0.307709
0.501454
0.436494
0.138949
-0.254488
-0.554018
-0.620721
-0.426025
-0.0579332
0.30738
0.495016
0.420337
0.116383
-0.27453
-0.562718
-0.61426
-0.406269
-0.0317239
0.331491
0.512415
0.432309
0.127464
-0.260234
-0.544217
-0.594025
-0.388756
-0.0210904
0.334221
0.510677
0.432911
0.138258
-0.233815
-0.501661
-0.539734
-0.332574
0.0231298
0.357728
0.518941
0.443933
0.170762
-0.176358
-0.438914
-0.506019
-0.356668
-0.0562687
0.269056
0.492709
0.546645
0.430418
0.199908
-0.0410219
-0.177262
-0.140658
0.0561047
0.322962
0.531905
0.575212
0.404449
0.0548344
-0.344118
-0.624185
-0.672147
-0.471368
-0.103455
0.275294
0.518822
0.575859
0.494655
0.376482
0.317066
0.352719
0.441104
0.491882
0.432449
0.27009
0.099102
0.035903
0.133592
0.34027
0.525557
0.556325
0.369525
0.0157727
-0.346758
-0.540062
-0.472002
-0.180646
0.179146
0.416089
0.413367
0.18231
-0.147648
-0.39555
-0.432118
-0.240157
0.0883658
0.403182
0.586652
0.614315
0.539626
0.446106
0.401848
0.424374
0.473888
0.485871
0.425529
0.322037
0.249296
0.268704
0.381357
0.522413
0.597401
0.53054
0.304239
-0.0125918
0.0857191
0.0191908
0.100653
0.292441
0.493032
0.592501
0.525228
0.296943
-0.00438643
-0.238942
-0.292701
-0.138538
0.150635
0.433722
0.575602
0.510206
0.259853
-0.0657803
-0.310649
-0.356758
-0.182782
0.128363
0.42619
0.572134
0.503672
0.250065
-0.0732994
-0.30971
-0.345046
-0.162873
0.150513
0.445394
0.588619
0.523351
0.279985
-0.0307212
-0.259152
-0.295811
-0.124701
0.171558
0.450385
0.585674
0.524401
0.296862
0.00883058
-0.198794
-0.22486
-0.0591444
0.215682
0.467434
0.587182
0.535095
0.341811
0.0960421
-0.0888775
-0.132327
-0.0233039
0.182494
0.394102
0.533314
0.566397
0.500003
0.369264
0.234326
0.163587
0.199175
0.331371
0.500152
0.621406
0.61858
0.446331
0.121535
-0.251419
-0.520734
-0.574438
-0.390666
-0.0479504
0.297048
0.492237
0.474975
0.290817
0.0629018
-0.0729553
-0.0439211
0.124783
0.331281
0.464218
0.478842
0.420126
0.377188
0.413163
0.52079
0.627771
0.641504
0.50238
0.228937
-0.068286
-0.242341
-0.203509
0.0234668
0.305294
0.471505
0.408975
0.118918
-0.272647
-0.574697
-0.643796
-0.449442
-0.0788074
0.297981
0.523238
0.538937
0.392533
0.197256
0.0750838
0.0923997
0.228794
0.399675
0.5173
0.548803
0.524628
0.499522
0.508899
0.549025
0.582008
0.556711
0.441127
0.257263
0.417867
0.383222
0.403258
0.47527
0.55941
0.60372
0.568594
0.445915
0.275739
0.138178
0.10751
0.203892
0.379767
0.547274
0.627036
0.580863
0.420965
0.213055
0.056816
0.0323299
0.152649
0.356771
0.544704
0.632526
0.585576
0.423007
0.215837
0.0644004
0.0453273
0.167401
0.367902
0.549747
0.635393
0.595631
0.449751
0.262121
0.123192
0.102844
0.20969
0.387182
0.547994
0.623153
0.587698
0.460158
0.298287
0.181266
0.168024
0.261694
0.409677
0.5389
0.598735
0.577062
0.492112
0.384241
0.303751
0.285029
0.326158
0.39468
0.454289
0.488771
0.501897
0.499584
0.482109
0.454668
0.434663
0.441855
0.483465
0.547292
0.602086
0.601434
0.498114
0.280168
0.00723364
-0.205414
-0.255527
-0.114321
0.151202
0.401829
0.499119
0.378432
0.0824614
-0.249021
-0.45181
-0.430099
-0.196178
0.140193
0.429611
0.575912
0.582363
0.5206
0.472867
0.484726
0.543166
0.589238
0.558228
0.42942
0.255442
0.136824
0.151684
0.296449
0.479985
0.573841
0.481006
0.189178
-0.201051
-0.515248
-0.609193
-0.44199
-0.0919302
0.269836
0.470862
0.432623
0.195867
-0.10363
-0.302332
-0.298211
-0.095516
0.20714
0.47384
0.612942
0.616263
0.535438
0.441953
0.393889
0.409036
0.457933
0.488397
0.469298
0.602026
0.588902
0.538111
0.487282
0.46256
0.470299
0.493486
0.503391
0.485239
0.45377
0.438525
0.45538
0.495413
0.536694
0.559807
0.552155
0.509283
0.444249
0.390335
0.380625
0.421612
0.489019
0.5481
0.575453
0.563216
0.514891
0.448728
0.39767
0.39037
0.428587
0.486712
0.533984
0.554684
0.547585
0.516828
0.473495
0.439195
0.434027
0.458488
0.492975
0.516943
0.52457
0.520326
0.507674
0.489938
0.476186
0.474842
0.481444
0.481895
0.471198
0.462542
0.473085
0.504843
0.543388
0.57041
0.570305
0.529667
0.446979
0.348995
0.285665
0.296511
0.377861
0.482604
0.554249
0.562832
0.515601
0.448667
0.407867
0.41885
0.462878
0.483602
0.430616
0.309163
0.187114
0.147921
0.22976
0.392957
0.534407
0.54084
0.34819
-0.0108083
-0.39724
-0.638787
-0.629962
-0.373291
0.0213456
0.381406
0.573564
0.570863
0.43771
0.283278
0.206733
0.246516
0.365506
0.481616
0.526494
0.493911
0.438243
0.426448
0.485024
0.578731
0.629769
0.560137
0.340024
0.0276345
-0.243054
-0.341276
-0.217904
0.0638881
0.351785
0.485516
0.381178
0.0696978
-0.306855
-0.565163
-0.584796
-0.357035
0.0176072
0.371862
0.566587
0.560166
0.402635
0.200648
0.0701249
0.0783224
0.212509
0.395979
0.540828
0.627982
0.613159
0.479418
0.305946
0.182878
0.169933
0.26672
0.417472
0.54834
0.610815
0.595613
0.520094
0.418973
0.33848
0.317645
0.364843
0.4517
0.532919
0.57521
0.567863
0.515648
0.436827
0.365353
0.338356
0.371975
0.448467
0.528314
0.575983
0.573573
0.518764
0.426904
0.336034
0.293162
0.324219
0.414695
0.518691
0.588184
0.594685
0.532248
0.41981
0.30467
0.245133
0.275164
0.381026
0.509109
0.598298
0.608263
0.528007
0.381429
0.230917
0.153532
0.195351
0.340748
0.51917
0.644899
0.656764
0.53468
0.311338
0.0772007
-0.0564196
-0.0228597
0.15756
0.385676
0.542657
0.557403
0.434065
0.245693
0.100511
0.0803135
0.190367
0.358882
0.488618
0.527151
0.496668
0.462861
0.479131
0.54646
0.608098
0.578148
0.390677
0.0565821
-0.310502
-0.551253
-0.55728
-0.322382
0.0492612
0.383321
0.534126
0.457865
0.217121
-0.0511387
-0.203339
-0.165346
0.037391
0.300605
0.504278
0.586212
0.565016
0.506886
0.476756
0.499707
0.546911
0.554538
0.469759
0.300222
0.125206
0.0468901
0.119019
0.305681
0.494738
0.558138
0.416415
0.0838723
-0.314381
-0.599867
-0.645726
-0.432329
-0.0542142
0.311487
0.500899
0.44887
0.202703
-0.102547
-0.306201
-0.306429
-0.103901
0.205906
0.484084
0.563194
0.51966
0.295426
0.00891474
-0.195243
-0.21813
-0.0508779
0.225802
0.483416
0.616071
0.583464
0.409887
0.174699
-0.0119224
-0.0613426
0.0484622
0.262751
0.478538
0.600822
0.583101
0.433799
0.214447
0.024473
-0.0451562
0.0398415
0.238985
0.456442
0.592533
0.589245
0.443819
0.211621
-0.0044303
-0.101102
-0.0305586
0.174567
0.415432
0.57928
0.594399
0.450817
0.203992
-0.0356549
-0.152926
-0.090017
0.124098
0.385591
0.569473
0.59176
0.43649
0.162295
-0.10778
-0.242805
-0.175114
0.0657109
0.363368
0.573224
0.594842
0.406498
0.076583
-0.247801
-0.411658
-0.337473
-0.0639422
0.266841
0.484635
0.486597
0.279642
-0.0253391
-0.263961
-0.310178
-0.141403
0.156938
0.442199
0.605975
0.632256
0.578608
0.522789
0.51402
0.543294
0.547651
0.452757
0.236139
-0.0337278
-0.229454
-0.246998
-0.0693278
0.216182
0.4565
0.516964
0.347668
0.00871476
-0.345492
-0.547258
-0.506939
-0.244796
0.119496
0.42392
0.559732
0.520607
0.382013
0.252875
0.217095
0.288201
0.408243
0.492906
0.494802
0.436815
0.387957
0.406322
0.494613
0.595027
0.620285
0.498536
0.220773
-0.126438
-0.39307
-0.455577
-0.283793
0.0401196
0.351061
0.488598
0.37828
0.0607536
-0.317047
-0.572299
-0.586939
-0.353244
0.0268792
0.381506
0.49775
0.408676
0.107361
-0.259941
-0.514907
-0.540589
-0.325532
0.0353433
0.375983
0.546792
0.484563
0.223187
-0.117431
-0.37733
-0.437921
-0.273196
0.0423387
0.361417
0.5395
0.503317
0.26858
-0.0633577
-0.339862
-0.434215
-0.304188
-0.00691371
0.319623
0.524159
0.517199
0.298388
-0.0414161
-0.347243
-0.478056
-0.375297
-0.083529
0.261986
0.498478
0.519899
0.314465
-0.0313292
-0.357838
-0.512327
-0.425179
-0.134232
0.225159
0.481339
0.516543
0.311681
-0.0471756
-0.393249
-0.563301
-0.480614
-0.181701
0.192645
0.459605
0.491731
0.26936
-0.110571
-0.465241
-0.621707
-0.505954
-0.171547
0.21498
0.456287
0.434508
0.16127
-0.226404
-0.528843
-0.596386
-0.39742
-0.0234624
0.351696
0.575135
0.601063
0.487103
0.343317
0.270931
0.305604
0.399599
0.460099
0.421666
0.299734
0.179923
0.153928
0.253996
0.426518
0.558676
0.539396
0.316576
-0.060652
-0.442091
-0.658628
-0.618044
-0.338712
0.0532578
0.375101
0.492012
0.383254
0.137103
-0.0960167
-0.184189
-0.0831065
0.150494
0.398106
0.55568
0.594576
0.557908
0.514192
0.511333
0.549649
0.581763
0.540903
0.389768
0.164254
-0.0323776
-0.0936553
0.0201726
0.251683
0.470612
0.543257
0.397018
0.058126
-0.33906
-0.614674
-0.646423
-0.419937
-0.0348146
0.326977
0.493715
0.364911
0.026786
-0.369679
-0.63927
-0.663323
-0.431367
-0.0430623
0.321364
0.494044
0.402054
0.0867878
-0.307432
-0.596085
-0.652108
-0.452748
-0.0831145
0.287178
0.487939
0.433321
0.146377
-0.245915
-0.561954
-0.661524
-0.503218
-0.152768
0.231229
0.47057
0.459991
0.202719
-0.189203
-0.533929
-0.675597
-0.55454
-0.220845
0.17478
0.446109
0.470943
0.237981
-0.150009
-0.510719
-0.677687
-0.579349
-0.256848
0.14363
0.432049
0.477164
0.259688
-0.12315
-0.489892
-0.669259
-0.584269
-0.273072
0.119486
0.402708
0.444631
0.230301
-0.134464
-0.463872
-0.590845
-0.451057
-0.106746
0.273067
0.496846
0.453432
0.1564
-0.255934
-0.579687
-0.660488
-0.463389
-0.0810188
0.30063
0.506802
0.473935
0.263629
0.0195463
-0.110124
-0.0547102
0.146722
0.37725
0.522752
0.546749
0.497193
0.45487
0.47362
0.545605
0.605248
0.565736
0.370184
0.0436818
-0.292769
-0.487743
-0.45093
-0.19771
0.149507
0.413268
0.458577
0.259738
-0.0869298
-0.404303
-0.533685
-0.415262
-0.103992
0.257058
0.51568
0.599668
0.534925
0.407352
0.313315
0.309433
0.382991
0.46566
0.485285
0.422709
0.328033
0.281051
0.330414
0.457016
0.582598
0.612074
0.479531
0.189095
-0.160678
-0.416456
-0.460494
-0.271454
0.0610749
0.368898
0.551419
0.412854
0.0967456
-0.268628
-0.516838
-0.536704
-0.319098
0.0387374
0.366866
0.510413
0.402783
0.0853327
-0.300413
-0.574722
-0.616272
-0.408117
-0.0398232
0.319828
0.507095
0.442605
0.152546
-0.235877
-0.543168
-0.632736
-0.467517
-0.117039
0.260354
0.492132
0.479756
0.229425
-0.149238
-0.480172
-0.61247
-0.489693
-0.163975
0.21683
0.475753
0.49993
0.280923
-0.0842878
-0.424302
-0.580794
-0.485409
-0.179642
0.196512
0.467199
0.514624
0.323247
-0.0195795
-0.351467
-0.515964
-0.44109
-0.163066
0.186072
0.439431
0.486264
0.317925
0.0255009
-0.236208
-0.327707
-0.197444
0.0951634
0.405682
0.580334
0.531597
0.268372
-0.0980329
-0.392753
-0.473584
-0.304867
0.0252725
0.339424
0.468235
0.344575
0.0336073
-0.297415
-0.471829
-0.400841
-0.117801
0.242572
0.522589
0.640351
0.616729
0.531738
0.469038
0.47064
0.514514
0.529977
0.446847
0.25454
0.0279166
-0.114295
-0.0881035
0.101297
0.353651
0.522013
0.490021
0.230028
-0.167799
-0.5245
-0.676173
-0.558255
-0.223324
0.174909
0.456974
0.522047
0.385014
0.151245
-0.0370979
-0.0759158
0.0488287
0.263598
0.457455
0.554805
0.556123
0.517023
0.498106
0.52596
0.580236
0.605781
0.542669
0.368185
0.131598
-0.0593252
-0.104274
0.0254275
0.264037
0.481175
0.609631
0.504068
0.271343
-0.00329373
-0.194308
-0.208857
-0.0377999
0.237303
0.481939
0.579281
0.479872
0.215846
-0.100712
-0.322317
-0.34585
-0.160596
0.149058
0.439934
0.583988
0.523527
0.281819
-0.0391514
-0.292192
-0.360727
-0.214576
0.0800888
0.387586
0.571737
0.559993
0.359836
0.0566035
-0.210172
-0.315058
-0.210181
0.0559838
0.358838
0.560864
0.57982
0.41159
0.128782
-0.137947
-0.261461
-0.184443
0.0560941
0.345714
0.55185
0.591534
0.455866
0.206731
-0.0397411
-0.165634
-0.113329
0.0883871
0.339672
0.523511
0.567554
0.468348
0.284921
0.116294
0.0544578
0.134889
0.318667
0.514434
0.627241
0.598904
0.42594
0.172628
-0.0418174
-0.106168
0.0139566
0.248826
0.453898
0.487626
0.288263
-0.0834141
-0.458372
-0.655567
-0.582743
-0.269256
0.143722
0.472849
0.605159
0.544211
0.378558
0.228496
0.184347
0.258672
0.385418
0.468883
0.45392
0.365344
0.284745
0.287966
0.391136
0.536285
0.621947
0.555801
0.304555
-0.0660259
-0.402337
-0.551751
-0.448447
-0.141493
0.218347
0.451513
0.449356
0.22041
-0.116147
-0.386109
-0.456527
-0.297061
0.0174241
0.344962
0.558606
0.615764
0.555221
0.454535
0.388391
0.393115
0.449409
0.497962
0.483684
0.401704
0.306139
0.269732
0.328923
0.456525
0.577256
0.57965
0.546711
0.443325
0.302374
0.194718
0.183412
0.280188
0.436753
0.573823
0.624241
0.558187
0.391926
0.191879
0.05254
0.0441537
0.171733
0.372985
0.553736
0.638343
0.596228
0.442741
0.23924
0.0783417
0.0379238
0.136985
0.326013
0.515209
0.624362
0.615636
0.495759
0.313671
0.151832
0.0892374
0.156477
0.318659
0.496168
0.610709
0.620734
0.526532
0.367117
0.214378
0.143065
0.188069
0.32415
0.482349
0.592115
0.615287
0.550395
0.426821
0.300147
0.2311
0.251482
0.345988
0.464611
0.555509
0.590668
0.568106
0.505233
0.434077
0.388949
0.38876
0.429869
0.492372
0.548719
0.567827
0.525142
0.427164
0.325074
0.287428
0.348287
0.473676
0.571808
0.540332
0.32409
-0.0345701
-0.391974
-0.583525
-0.520147
-0.228097
0.154697
0.443377
0.515131
0.36508
0.09419
-0.141995
-0.216249
-0.0942863
0.155932
0.407356
0.555825
0.580633
0.534816
0.49366
0.505539
0.564792
0.615732
0.58407
0.423529
0.162019
-0.09244
-0.213426
-0.136341
0.10102
0.369916
0.516186
0.440224
0.144295
-0.253912
-0.571426
-0.666041
-0.499684
-0.143794
0.24442
0.503717
0.559022
0.437139
0.234695
0.0727843
0.0377458
0.139365
0.314396
0.470483
0.546702
0.545752
0.513995
0.498373
0.517522
0.556847
0.395441
0.461375
0.509367
0.516176
0.495999
0.479959
0.486351
0.511084
0.538329
0.552243
0.540097
0.496677
0.435495
0.389102
0.386825
0.430616
0.494585
0.546746
0.568851
0.556885
0.513974
0.453685
0.403836
0.392271
0.424479
0.478803
0.525287
0.547377
0.544187
0.519594
0.480499
0.443536
0.429956
0.447586
0.482324
0.511659
0.524455
0.523534
0.51329
0.495035
0.474899
0.465267
0.472026
0.485858
0.492876
0.491683
0.493014
0.503247
0.515971
0.521375
0.516432
0.502096
0.47881
0.453127
0.443419
0.467621
0.52226
0.577851
0.59719
0.557992
0.465673
0.357367
0.2895
0.302672
0.388502
0.492412
0.556449
0.564586
0.547147
0.545867
0.574284
0.600746
0.562462
0.406703
0.14419
-0.129152
-0.282783
-0.235448
-0.00635805
0.283906
0.472804
0.446701
0.198176
-0.163655
-0.462204
-0.553893
-0.396365
-0.0588644
0.307536
0.556274
0.6298
0.564602
0.447348
0.367166
0.371132
0.440745
0.507132
0.499531
0.400441
0.265692
0.187042
0.226389
0.370697
0.533996
0.602954
0.493363
0.196014
-0.193919
-0.510616
-0.615643
-0.466065
-0.12812
0.241337
0.472661
0.475246
0.266946
-0.0405578
-0.290133
-0.361223
-0.224689
0.0547167
0.352606
0.55501
0.618574
0.569729
0.469759
0.384423
0.358265
0.0662427
0.236512
0.433786
0.577416
0.629013
0.59378
0.500997
0.393466
0.318783
0.309792
0.36626
0.455391
0.533944
0.573424
0.565299
0.512619
0.430611
0.351968
0.315817
0.342864
0.419851
0.50834
0.56995
0.582979
0.541141
0.453588
0.352492
0.286278
0.291519
0.367471
0.475819
0.565684
0.600602
0.566299
0.470395
0.348169
0.256705
0.24461
0.320241
0.445453
0.559511
0.612767
0.582528
0.474915
0.330132
0.216125
0.193886
0.278269
0.426484
0.563111
0.622658
0.576318
0.439254
0.272587
0.163843
0.17676
0.306594
0.477263
0.58421
0.553131
0.379443
0.139812
-0.0390829
-0.0567529
0.09576
0.33197
0.530352
0.615424
0.592529
0.52303
0.474072
0.472283
0.486736
0.457273
0.352932
0.211662
0.119595
0.146186
0.288774
0.462927
0.545413
0.440913
0.138407
-0.259522
-0.578199
-0.675096
-0.507433
-0.144416
0.25244
0.513943
0.559829
0.41865
0.196227
0.0248241
-0.00368768
0.117473
0.314094
0.480018
0.547316
0.524276
0.473765
0.461125
0.510328
0.58907
0.626428
0.550367
0.333369
0.031189
-0.229408
-0.32565
-0.210372
0.0614425
0.351341
0.507262
0.439783
0.158161
-0.223396
-0.532035
-0.63261
-0.485996
-0.153209
0.224149
0.493187
0.57332
0.475475
0.276657
0.0876084
0.00508483
-0.300883
-0.0485713
0.268081
0.517439
0.613958
0.542598
0.346917
0.116056
-0.0448841
-0.0637363
0.0657767
0.282413
0.488018
0.598398
0.574389
0.424039
0.203219
0.00564631
-0.0786855
-0.00978536
0.182327
0.409994
0.572882
0.605259
0.492246
0.272584
0.0368838
-0.107199
-0.0914666
0.0782831
0.323139
0.529888
0.609218
0.527603
0.312846
0.0537874
-0.130275
-0.151617
0.00110864
0.256409
0.493551
0.60585
0.544681
0.329867
0.0508627
-0.161922
-0.205068
-0.056608
0.211929
0.467997
0.588694
0.517626
0.282642
-0.0064903
-0.201865
-0.201529
-0.00884657
0.265403
0.459899
0.454285
0.234998
-0.0901411
-0.342749
-0.382094
-0.188627
0.12867
0.400394
0.506317
0.439634
0.290204
0.179313
0.183345
0.290396
0.419742
0.490967
0.485909
0.4511
0.449066
0.504566
0.581401
0.60003
0.482502
0.207425
-0.148869
-0.437235
-0.526482
-0.374147
-0.047091
0.298114
0.495476
0.459225
0.214954
-0.113179
-0.359543
-0.405836
-0.232922
0.0782647
0.386956
0.57596
0.614547
0.54992
0.462779
0.42233
0.450406
0.510837
0.533508
0.463736
0.309829
0.148773
0.0767622
0.144223
0.320611
0.506233
0.583956
0.474195
0.173702
-0.220219
-0.543758
-0.661158
-0.527198
-0.197303
0.184226
0.449633
0.497931
0.328368
0.0302687
-0.249997
-0.379447
-0.554731
-0.262847
0.118082
0.4233
0.532241
0.414806
0.128957
-0.196204
-0.413928
-0.430931
-0.240531
0.0760729
0.378959
0.53954
0.495923
0.263423
-0.0659832
-0.349832
-0.464631
-0.361436
-0.0814086
0.253503
0.494528
0.540668
0.371444
0.051356
-0.28163
-0.478085
-0.452529
-0.214474
0.131966
0.427932
0.542039
0.425526
0.123201
-0.233236
-0.479928
-0.50665
-0.300944
0.0472147
0.376073
0.534697
0.453497
0.163202
-0.208437
-0.486841
-0.543961
-0.354065
-0.00266873
0.341063
0.510842
0.427621
0.127687
-0.244342
-0.500056
-0.514166
-0.285462
0.0614761
0.33183
0.372478
0.159922
-0.185466
-0.463729
-0.517923
-0.324071
3.47488e-05
0.263962
0.327233
0.183726
-0.0472252
-0.201909
-0.173075
0.0324367
0.306973
0.520499
0.60828
0.592877
0.543703
0.522347
0.542586
0.561893
0.5107
0.347604
0.107926
-0.101873
-0.171328
-0.0569056
0.187367
0.429756
0.529228
0.40642
0.0831058
-0.31073
-0.596965
-0.650604
-0.449786
-0.0787704
0.299784
0.53339
0.563575
0.432138
0.244347
0.117396
0.12056
0.241736
0.401577
0.507822
0.518101
0.462258
0.410279
0.419203
0.495655
0.591215
0.627938
0.53588
0.293809
-0.03556
-0.320173
-0.434867
-0.329042
-0.0495513
0.271293
0.477494
0.46785
0.233273
-0.134996
-0.474194
-0.63576
-0.589479
-0.301791
0.0800036
0.382887
0.474221
0.317268
-0.0217813
-0.392177
-0.629307
-0.63613
-0.409519
-0.0403086
0.311059
0.493641
0.435269
0.157517
-0.226268
-0.548607
-0.673382
-0.551168
-0.228094
0.159171
0.438326
0.49082
0.294407
-0.0719565
-0.446584
-0.662744
-0.630742
-0.362183
0.0298135
0.366758
0.497655
0.366885
0.0279137
-0.367704
-0.638009
-0.666068
-0.439523
-0.0536119
0.314444
0.494784
0.40853
0.0910143
-0.314386
-0.616495
-0.679431
-0.475837
-0.0936619
0.286237
0.480801
0.400917
0.0835611
-0.316982
-0.599322
-0.628375
-0.395747
-0.0223023
0.292143
0.384993
0.224952
-0.0778357
-0.335655
-0.397797
-0.240032
0.0240728
0.211681
0.19029
-0.0346015
-0.323877
-0.496157
-0.438619
-0.164368
0.196426
0.477252
0.582681
0.527191
0.400638
0.307972
0.308694
0.385206
0.461891
0.465217
0.383155
0.275443
0.227302
0.286823
0.428857
0.564492
0.587646
0.427822
0.0954661
-0.295308
-0.577506
-0.630148
-0.43152
-0.0670442
0.295414
0.492859
0.45456
0.222261
-0.0735749
-0.276091
-0.284701
-0.0981609
0.192536
0.455068
0.596661
0.608754
0.546139
0.481716
0.467016
0.506414
0.555461
0.546575
0.434012
0.236821
0.0415958
-0.0493804
0.0173688
0.21297
0.435927
0.562959
0.506233
0.248383
-0.133704
-0.485775
-0.660323
-0.388921
-0.142606
0.183605
0.43444
0.491197
0.319399
-0.0190428
-0.379026