# vtk DataFile Version 3.0
PFC simulation results
ASCII
DATASET STRUCTURED_POINTS
DIMENSIONS 128 128 1
ORIGIN 0 0 0
SPACING 1 1 1
POINT_DATA 16384
SCALARS psi double
LOOKUP_TABLE default
0.223065
0.471448
0.47797
0.2283
-0.169849
-0.525503
-0.669267
-0.536643
-0.187125
0.211568
0.463548
0.45231
0.186637
-0.203354
-0.52132
-0.61254
-0.435593
-0.0738869
0.293809
0.485807
0.411642
0.103026
-0.294957
-0.588975
-0.642954
-0.433341
-0.0549327
0.30926
0.482861
0.386416
0.0643267
-0.327347
-0.593152
-0.605662
-0.359876
0.0235572
0.346386
0.442295
0.261771
-0.108702
-0.481621
-0.669871
-0.581459
-0.24772
0.183214
0.512801
0.602271
0.421931
0.0522399
-0.330127
-0.535517
-0.4705
-0.181034
0.170419
0.391328
0.367012
0.111425
-0.241734
-0.50698
-0.553655
-0.366811
-0.0409169
0.27674
0.479751
0.557349
0.560302
0.529272
0.455226
0.297546
0.0398836
-0.267127
-0.521511
-0.628331
-0.542216
-0.282783
0.0609161
0.364066
0.537741
0.56968
0.508033
0.423933
0.376217
0.38671
0.435768
0.47938
0.477557
0.416645
0.312222
0.19354
0.0824996
-0.0158487
-0.103004
-0.167749
-0.180066
-0.110349
0.0381603
0.212993
0.331018
0.319323
0.154689
-0.111398
-0.364479
-0.48567
-0.41222
-0.163656
0.161825
0.434152
0.568764
0.564748
0.483527
0.405415
0.385155
0.421383
0.462403
0.450864
0.376694
0.291557
0.268367
0.340906
0.471382
0.567515
0.533261
0.322498
-0.0178116
-0.348353
-0.513996
-0.433647
-0.140387
0.367869
0.537104
0.507761
0.263268
-0.106556
-0.43241
-0.559237
-0.427736
-0.097817
0.269076
0.488954
0.453393
0.172561
-0.224053
-0.541238
-0.627004
-0.443403
-0.0768925
0.291876
0.481677
0.405115
0.0982644
-0.291032
-0.570991
-0.610825
-0.39377
-0.0196864
0.329902
0.486722
0.380743
0.0634232
-0.307777
-0.543808
-0.528207
-0.267362
0.112117
0.419087
0.502826
0.323412
-0.0358409
-0.398146
-0.58498
-0.507709
-0.197197
0.205787
0.516598
0.608171
0.453573
0.123868
-0.222725
-0.410247
-0.346968
-0.0740197
0.255282
0.46002
0.431051
0.177119
-0.178414
-0.455281
-0.518939
-0.346327
-0.0254492
0.297585
0.511196
0.595804
0.594733
0.54754
0.452244
0.280219
0.0258445
-0.256897
-0.472471
-0.538459
-0.423464
-0.160298
0.154607
0.398699
0.48902
0.419442
0.253059
0.0877072
0.00767578
0.0464486
0.178622
0.338473
0.458892
0.508566
0.498331
0.458074
0.409347
0.354027
0.284634
0.205553
0.144065
0.136686
0.197979
0.297277
0.364497
0.323162
0.134935
-0.162461
-0.457104
-0.621073
-0.576295
-0.327247
0.0296279
0.341727
0.488567
0.444516
0.276315
0.103152
0.0331259
0.103781
0.268141
0.433415
0.527672
0.544393
0.529136
0.530754
0.562239
0.592074
0.562854
0.428717
0.200647
-0.035553
-0.163349
-0.110338
0.103667
0.509889
0.597235
0.56061
0.379328
0.107094
-0.136288
-0.229763
-0.123106
0.133747
0.410888
0.566876
0.519432
0.276161
-0.0597959
-0.327006
-0.39475
-0.231345
0.0829661
0.39186
0.547291
0.48202
0.228434
-0.0915729
-0.318354
-0.340939
-0.149702
0.162082
0.441468
0.557709
0.462244
0.201494
-0.0957439
-0.275413
-0.243736
-0.0146726
0.298076
0.541007
0.603485
0.460171
0.174747
-0.117726
-0.274117
-0.22002
0.0170597
0.322138
0.554721
0.623099
0.509737
0.267181
0.011825
-0.122168
-0.061702
0.159329
0.418411
0.576443
0.550824
0.346267
0.0554507
-0.17801
-0.239883
-0.109343
0.136109
0.37275
0.512919
0.549972
0.530032
0.492061
0.433266
0.323244
0.149706
-0.0483463
-0.194095
-0.219295
-0.102324
0.11714
0.346503
0.478701
0.443528
0.242068
-0.0454939
-0.293331
-0.396851
-0.318618
-0.0946371
0.182707
0.411962
0.540239
0.578704
0.57193
0.558423
0.548846
0.53031
0.489638
0.434766
0.394353
0.394347
0.430663
0.460153
0.418101
0.25683
-0.0107894
-0.297467
-0.482998
-0.47946
-0.276211
0.0410526
0.319394
0.42387
0.310768
0.0465033
-0.22228
-0.348204
-0.263857
-0.00835526
0.298683
0.52889
0.621693
0.599157
0.527298
0.471097
0.460413
0.47597
0.46867
0.405896
0.308597
0.240998
0.259929
0.368767
0.532529
0.556299
0.547578
0.477499
0.352961
0.228736
0.176839
0.23511
0.378744
0.533389
0.617779
0.581756
0.424859
0.206451
0.0299624
-0.0136256
0.0988582
0.309312
0.511735
0.612476
0.571532
0.410078
0.204901
0.0598906
0.0500469
0.179071
0.379233
0.550968
0.617144
0.552887
0.388882
0.204774
0.0973667
0.125575
0.275068
0.468661
0.613981
0.651421
0.569677
0.403686
0.22865
0.129457
0.152364
0.278703
0.439196
0.558121
0.591478
0.532877
0.408571
0.278018
0.214585
0.260414
0.394375
0.544085
0.631463
0.612143
0.489616
0.316836
0.178931
0.145377
0.22279
0.349486
0.440431
0.451022
0.404442
0.360134
0.357014
0.381848
0.387003
0.338906
0.252055
0.18037
0.178726
0.266489
0.411685
0.540301
0.566598
0.430555
0.13538
-0.229268
-0.521559
-0.628846
-0.51685
-0.233286
0.106718
0.374195
0.500986
0.505266
0.458226
0.431343
0.455574
0.512707
0.560575
0.570643
0.548294
0.522404
0.516754
0.525686
0.510456
0.42291
0.247249
0.0294363
-0.137679
-0.167535
-0.0348415
0.196264
0.394688
0.433025
0.257001
-0.0770829
-0.41581
-0.593432
-0.523881
-0.234233
0.145766
0.448385
0.568155
0.50603
0.344489
0.198626
0.156419
0.232816
0.370727
0.488485
0.539371
0.534088
0.513864
0.511517
0.367399
0.347957
0.394379
0.462681
0.505346
0.508059
0.491691
0.484014
0.496485
0.522634
0.546283
0.54733
0.510158
0.44066
0.373448
0.349902
0.385556
0.459802
0.533947
0.576322
0.572512
0.524874
0.455217
0.400863
0.392379
0.43145
0.492213
0.542671
0.563239
0.548594
0.504488
0.450761
0.417112
0.422819
0.46097
0.506844
0.539924
0.5537
0.54777
0.522722
0.487064
0.458013
0.446544
0.446549
0.445032
0.439699
0.439273
0.447626
0.457205
0.46201
0.468342
0.484905
0.507876
0.523618
0.522752
0.505313
0.477003
0.449342
0.439966
0.459844
0.493106
0.494932
0.423815
0.286366
0.147147
0.086254
0.140708
0.277103
0.416898
0.495531
0.502988
0.476549
0.466185
0.501519
0.5731
0.632814
0.612296
0.454077
0.154251
-0.205214
-0.48627
-0.577438
-0.448265
-0.157231
0.165953
0.381598
0.419403
0.310075
0.15753
0.0743371
0.116879
0.261174
0.427992
0.538371
0.56182
0.523902
0.477942
0.464917
0.484035
0.494885
0.453794
0.35715
0.253893
0.213821
0.274773
0.406561
0.518656
0.507293
0.313049
-0.0301977
-0.388014
-0.59725
-0.56074
-0.291891
0.0834108
0.38281
0.474432
0.341815
0.0792207
-0.157021
-0.233094
-0.107659
0.155745
0.430334
0.604987
0.641905
0.570945
0.456357
0.0411957
-0.00809687
0.10289
0.310913
0.511513
0.623549
0.623826
0.536625
0.41414
0.319512
0.299557
0.358719
0.457804
0.542451
0.578246
0.560724
0.503342
0.430355
0.375311
0.368308
0.415694
0.492732
0.559908
0.587764
0.566091
0.500578
0.414244
0.346308
0.333461
0.384423
0.471719
0.549775
0.581991
0.552524
0.467197
0.357951
0.277644
0.272046
0.348621
0.469271
0.573943
0.614179
0.568451
0.44467
0.286348
0.164468
0.139986
0.224505
0.371859
0.507754
0.573967
0.550046
0.450889
0.321163
0.221258
0.198115
0.261668
0.383383
0.513739
0.604027
0.614137
0.513038
0.299589
0.0330719
-0.178118
-0.236647
-0.113
0.135254
0.393934
0.564647
0.617426
0.583998
0.523584
0.490949
0.509235
0.555275
0.568294
0.482821
0.276932
0.00764251
-0.209272
-0.27098
-0.148177
0.0978323
0.338668
0.442814
0.347085
0.094133
-0.182746
-0.335513
-0.287794
-0.0683245
0.209819
0.414621
0.473594
0.405402
0.294706
0.235927
0.27442
0.382975
0.490558
0.539957
0.528379
0.499999
0.503023
0.548319
0.596274
0.575874
0.426781
0.151688
-0.156923
-0.359958
-0.357198
-0.146977
0.161333
0.39708
0.425464
0.218332
-0.12844
-0.436857
-0.548207
-0.404784
-0.0688393
0.304655
0.553399
0.597792
0.458465
0.230093
-0.318489
-0.388644
-0.22625
0.091406
0.413406
0.600414
0.592844
0.416645
0.165539
-0.032911
-0.0794917
0.0461695
0.278268
0.50238
0.620264
0.591028
0.433162
0.217877
0.0478411
0.00739196
0.116597
0.319676
0.514769
0.610084
0.563059
0.389749
0.163934
-0.00732711
-0.0388298
0.0858478
0.303978
0.505876
0.594347
0.525875
0.322291
0.0703663
-0.109892
-0.128788
0.0256622
0.28015
0.511691
0.612897
0.536061
0.304623
0.0146342
-0.198671
-0.233446
-0.0751466
0.195937
0.445074
0.557726
0.489946
0.274667
0.00968513
-0.182241
-0.214988
-0.0753184
0.176714
0.435128
0.598589
0.605233
0.435473
0.123857
-0.223624
-0.465855
-0.501505
-0.314277
0.017328
0.350013
0.557773
0.596437
0.499962
0.348813
0.23502
0.219146
0.298906
0.411203
0.469882
0.423551
0.295393
0.170457
0.137368
0.228713
0.396854
0.535023
0.531693
0.330383
-0.0237476
-0.383955
-0.584158
-0.538341
-0.277729
0.063413
0.314044
0.366845
0.233374
0.0271006
-0.106247
-0.0760037
0.107151
0.349207
0.538921
0.618753
0.605366
0.557362
0.52921
0.536371
0.544866
0.495675
0.356507
0.164447
0.014858
-0.00231956
0.131516
0.339803
0.487519
0.456286
0.209732
-0.170898
-0.512796
-0.652429
-0.522512
-0.177982
0.218511
0.478466
0.49425
0.278328
-0.0504701
-0.549984
-0.633008
-0.44739
-0.0750117
0.308039
0.524175
0.48797
0.229029
-0.123017
-0.392435
-0.449352
-0.267941
0.0664458
0.393323
0.563243
0.508708
0.258193
-0.0726372
-0.32496
-0.379142
-0.210934
0.0986603
0.39709
0.541049
0.464529
0.198183
-0.137016
-0.380088
-0.415559
-0.226256
0.0987325
0.399938
0.531902
0.431457
0.137031
-0.218649
-0.466436
-0.49123
-0.280409
0.0710476
0.395828
0.541783
0.442798
0.137451
-0.236689
-0.501014
-0.533082
-0.320362
0.0358117
0.361058
0.502036
0.399438
0.100847
-0.256645
-0.508614
-0.547924
-0.361159
-0.0252398
0.319436
0.536142
0.548935
0.348758
-0.00315378
-0.371905
-0.603844
-0.605243
-0.374864
-0.00683526
0.339921
0.52693
0.503079
0.306991
0.0447391
-0.152313
-0.19133
-0.0596376
0.174106
0.396019
0.516117
0.522065
0.472266
0.445348
0.486416
0.577472
0.644822
0.597154
0.377865
0.0192363
-0.344052
-0.549018
-0.50634
-0.245946
0.0917519
0.322714
0.325158
0.106017
-0.203046
-0.420341
-0.42247
-0.203881
0.12983
0.423007
0.565394
0.545494
0.432326
0.325291
0.296902
0.351625
0.430989
0.464499
0.428844
0.366184
0.345967
0.404898
0.512695
0.585438
0.532223
0.309624
-0.0321492
-0.352731
-0.501339
-0.404738
-0.106281
0.242724
0.458464
0.426377
0.151719
-0.238153
-0.550731
-0.638214
-0.458758
-0.0922908
0.282976
0.481693
0.410115
0.0998593
-0.301597
-0.598027
-0.651866
-0.439358
-0.055332
0.317257
0.502419
0.419892
0.108127
-0.286804
-0.574965
-0.624681
-0.415366
-0.0425332
0.313318
0.480119
0.381039
0.0597292
-0.332045
-0.604782
-0.633231
-0.404197
-0.0202986
0.333937
0.488846
0.373416
0.0372709
-0.36272
-0.635865
-0.659851
-0.424092
-0.0317937
0.332061
0.496969
0.390976
0.0617519
-0.335283
-0.607273
-0.628964
-0.392219
-0.00673908
0.340918
0.487401
0.371235
0.0463865
-0.337239
-0.603674
-0.642319
-0.44223
-0.0858706
0.277867
0.505525
0.522592
0.329403
-0.00278684
-0.33756
-0.52997
-0.499186
-0.25699
0.0941276
0.397985
0.523528
0.420358
0.129044
-0.226033
-0.486667
-0.542463
-0.372618
-0.0473558
0.296849
0.532104
0.61358
0.582387
0.519496
0.495534
0.5317
0.587021
0.581762
0.448771
0.19235
-0.0885817
-0.25418
-0.216622
0.0031392
0.278772
0.44328
0.382123
0.0969398
-0.282145
-0.562078
-0.603419
-0.388222
-0.0231002
0.310878
0.464615
0.401721
0.199555
-0.00074392
-0.0742308
0.0188547
0.221364
0.425003
0.545411
0.571769
0.552633
0.544295
0.567807
0.595573
0.568178
0.435549
0.207081
-0.0298696
-0.156559
-0.100506
0.11392
0.368076
0.511208
0.440996
0.153866
-0.237614
-0.318949
-0.399496
-0.251844
0.0541686
0.362163
0.51099
0.4169
0.107361
-0.280176
-0.560144
-0.602625
-0.388432
-0.0142958
0.339963
0.504881
0.405226
0.0830788
-0.312106
-0.590316
-0.624508
-0.400823
-0.0207571
0.333323
0.493022
0.387386
0.0646656
-0.321554
-0.583432
-0.600059
-0.363748
0.019132
0.366632
0.517506
0.408205
0.0889245
-0.29047
-0.54807
-0.566894
-0.339428
0.0318949
0.371922
0.525059
0.429286
0.131246
-0.226501
-0.467685
-0.477602
-0.252857
0.0998543
0.410772
0.53893
0.435065
0.148526
-0.189491
-0.423503
-0.454316
-0.275256
0.0343258
0.342619
0.531348
0.545067
0.390891
0.130745
-0.125121
-0.260538
-0.21224
0.0012777
0.28511
0.508267
0.563916
0.406244
0.0689114
-0.325429
-0.613753
-0.680978
-0.50197
-0.145398
0.241191
0.506196
0.581681
0.49884
0.351636
0.246882
0.248367
0.342464
0.44986
0.47941
0.395391
0.249627
0.147008
0.169482
0.316665
0.500174
0.592992
0.499098
0.20921
-0.171516
-0.466231
-0.534142
-0.348236
-0.00940086
0.298009
0.411111
0.278612
-0.0188592
-0.31136
-0.437571
-0.332055
-0.0459209
0.28583
0.524633
0.610563
0.574247
0.492922
0.439682
0.443722
0.476805
0.479751
0.4159
0.30992
0.234107
0.251878
0.366111
0.510105
0.584649
0.510698
0.273047
-0.051714
0.0469702
-0.0131913
0.0817744
0.286147
0.48992
0.579067
0.490639
0.240451
-0.0697087
-0.293022
-0.320653
-0.137943
0.168211
0.448045
0.568386
0.472757
0.197209
-0.134748
-0.363185
-0.379115
-0.175523
0.151338
0.444786
0.570907
0.478233
0.209013
-0.111011
-0.325383
-0.330948
-0.125486
0.193482
0.474835
0.595065
0.510121
0.260776
-0.0376414
-0.24108
-0.252759
-0.0689201
0.221573
0.480513
0.594659
0.523279
0.303113
0.0387712
-0.138072
-0.139242
0.0341889
0.294916
0.517626
0.607651
0.53664
0.340768
0.109041
-0.051337
-0.0703701
0.0523369
0.254262
0.44584
0.557826
0.564258
0.473808
0.322748
0.174979
0.101806
0.144264
0.288724
0.470809
0.60421
0.614162
0.45847
0.152174
-0.208964
-0.48104
-0.552031
-0.39215
-0.0666709
0.278893
0.49095
0.491952
0.307201
0.0471241
-0.144619
-0.168204
-0.0169377
0.225597
0.435713
0.529611
0.512352
0.456885
0.443035
0.502846
0.600836
0.656348
0.590294
0.375799
0.0760358
-0.172467
-0.243236
-0.101908
0.167165
0.400688
0.448203
0.253597
-0.109842
-0.466073
-0.638698
-0.547365
-0.233756
0.156449
0.448361
0.542686
0.453942
0.279178
0.141637
0.124324
0.227401
0.379623
0.494656
0.532481
0.516614
0.499338
0.515236
0.558341
0.587816
0.551496
0.420341
0.223073
0.390916
0.358363
0.388385
0.472127
0.562267
0.601723
0.550896
0.408277
0.225058
0.0894944
0.0749049
0.192748
0.384347
0.554199
0.622046
0.554512
0.373303
0.155906
0.0081735
0.00569428
0.150201
0.369391
0.55799
0.634751
0.572354
0.398986
0.193315
0.0563749
0.0570518
0.193151
0.394622
0.565533
0.636498
0.587253
0.443081
0.269365
0.150523
0.145657
0.254251
0.418079
0.557508
0.615822
0.577398
0.463587
0.32762
0.237768
0.240395
0.33077
0.457912
0.559908
0.599432
0.571503
0.49402
0.402256
0.338774
0.329985
0.369099
0.424588
0.46697
0.487928
0.493757
0.487052
0.464766
0.433029
0.412329
0.423267
0.47054
0.538836
0.596983
0.602868
0.51395
0.316912
0.0618841
-0.146738
-0.210037
-0.0924338
0.153202
0.401252
0.515973
0.420322
0.133472
-0.224144
-0.485155
-0.529793
-0.338755
0.00406061
0.347732
0.562768
0.614127
0.554143
0.471653
0.440222
0.479704
0.548667
0.573712
0.501417
0.345469
0.190191
0.135206
0.222258
0.399628
0.547421
0.544649
0.334426
-0.0317674
-0.398774
-0.59495
-0.531465
-0.240144
0.135163
0.407953
0.458122
0.287213
0.00667504
-0.219721
-0.267085
-0.112233
0.165675
0.43534
0.594746
0.62235
0.562021
0.481118
0.435133
0.441802
0.474424
0.48569
0.450412
0.593037
0.581839
0.540081
0.501014
0.48465
0.492081
0.504623
0.497284
0.463497
0.425726
0.415646
0.445133
0.498311
0.54698
0.568285
0.549818
0.491844
0.415722
0.361309
0.361465
0.416435
0.494639
0.557361
0.581575
0.562577
0.508439
0.44172
0.396164
0.396209
0.437485
0.491488
0.530236
0.543991
0.536391
0.51313
0.48301
0.461609
0.461366
0.477971
0.493983
0.497879
0.494328
0.493642
0.498014
0.503224
0.507562
0.510154
0.503744
0.48071
0.448854
0.432111
0.449758
0.497776
0.552466
0.587665
0.583773
0.528616
0.427885
0.318496
0.256409
0.278651
0.373506
0.487309
0.563044
0.574053
0.529038
0.461779
0.415785
0.419091
0.460168
0.48938
0.455819
0.355206
0.242772
0.195385
0.256051
0.399653
0.538988
0.567495
0.411775
0.0790181
-0.317925
-0.609746
-0.670745
-0.473932
-0.0995474
0.288767
0.533255
0.571264
0.444342
0.25975
0.136203
0.14246
0.264432
0.42142
0.521904
0.526551
0.47023
0.427279
0.452331
0.539408
0.623015
0.615449
0.457613
0.168024
-0.141638
-0.324248
-0.28912
-0.0557026
0.247997
0.449818
0.429618
0.178915
-0.188377
-0.487688
-0.571156
-0.399662
-0.0508546
0.315437
0.546804
0.581885
0.457332
0.272083
0.140139
0.133383
0.24637
0.409092
0.538736
0.632992
0.623952
0.50081
0.339678
0.226356
0.216419
0.306922
0.443063
0.556565
0.606068
0.586488
0.515341
0.424672
0.356065
0.342987
0.389578
0.467357
0.536008
0.568885
0.558572
0.508855
0.435321
0.369452
0.346441
0.381271
0.456332
0.533452
0.578082
0.571417
0.509693
0.409323
0.312277
0.269319
0.307266
0.409159
0.524315
0.599305
0.601446
0.524088
0.391251
0.259777
0.196157
0.236235
0.361065
0.507285
0.604198
0.60641
0.505138
0.33462
0.170775
0.097931
0.158769
0.326883
0.519986
0.645658
0.64292
0.498027
0.255411
0.0170751
-0.103039
-0.0455657
0.158332
0.401996
0.566511
0.58511
0.463378
0.270908
0.113256
0.0759545
0.173707
0.343653
0.489264
0.548524
0.530079
0.491165
0.488061
0.535994
0.596058
0.592625
0.453728
0.165292
-0.189722
-0.463063
-0.5315
-0.360896
-0.0249359
0.317048
0.504775
0.464167
0.231924
-0.0645683
-0.268856
-0.279681
-0.0959028
0.190477
0.446166
0.578652
0.582748
0.520265
0.469423
0.476892
0.531098
0.571235
0.529015
0.383299
0.191189
0.0595217
0.0716087
0.226698
0.431563
0.549985
0.47574
0.189349
-0.211186
-0.545972
-0.660523
-0.504416
-0.147882
0.240081
0.479644
0.481311
0.274398
-0.0162101
-0.228702
-0.250403
-0.0709688
0.221062
0.489999
0.571476
0.539407
0.327105
0.0514889
-0.144095
-0.162035
0.00383921
0.270312
0.510989
0.626411
0.582226
0.406267
0.178942
0.00747112
-0.0262647
0.0920778
0.30289
0.50482
0.609899
0.578185
0.421602
0.203091
0.0208694
-0.0381924
0.0552537
0.256963
0.469999
0.59627
0.579935
0.42065
0.17804
-0.0405485
-0.130911
-0.0480513
0.170237
0.419201
0.581919
0.585684
0.423309
0.15781
-0.0911218
-0.203834
-0.125101
0.108224
0.382032
0.563861
0.568842
0.387583
0.0921429
-0.18163
-0.300764
-0.206215
0.0593166
0.367652
0.569763
0.569581
0.355643
0.0101279
-0.310291
-0.453193
-0.351703
-0.0551504
0.288572
0.511244
0.515778
0.310011
-0.000311642
-0.254436
-0.322648
-0.172588
0.120974
0.418229
0.601338
0.639565
0.580466
0.503074
0.470735
0.494541
0.52509
0.48473
0.328307
0.0930351
-0.111825
-0.17531
-0.0552782
0.191104
0.428889
0.517467
0.383495
0.0592776
-0.317332
-0.571364
-0.589683
-0.365614
0.00198869
0.348731
0.539291
0.539283
0.409723
0.261472
0.19521
0.24664
0.371958
0.483207
0.512619
0.461581
0.394336
0.38419
0.456693
0.568146
0.628893
0.551197
0.301381
-0.0564208
-0.372415
-0.499444
-0.377806
-0.0663681
0.274939
0.467628
0.412088
0.129695
-0.242438
-0.515926
-0.556921
-0.344798
0.0249945
0.38105
0.497643
0.423847
0.132479
-0.228802
-0.478787
-0.498676
-0.279415
0.0784556
0.406635
0.559836
0.481697
0.212589
-0.123143
-0.366825
-0.406809
-0.22636
0.0914546
0.397325
0.553503
0.495932
0.247508
-0.0857687
-0.351921
-0.430318
-0.286097
0.0172834
0.338779
0.529368
0.504502
0.269314
-0.0790934
-0.382201
-0.501297
-0.383351
-0.0791565
0.270264
0.499855
0.505673
0.281553
-0.0771511
-0.403535
-0.545066
-0.43825
-0.129926
0.234988
0.480477
0.49233
0.261405
-0.112033
-0.451759
-0.598099
-0.486007
-0.165095
0.213377
0.465603
0.472897
0.228169
-0.159538
-0.503115
-0.636973
-0.498523
-0.149861
0.240057
0.479303
0.45717
0.185398
-0.205783
-0.521795
-0.610747
-0.432617
-0.0676192
0.315909
0.556953
0.594004
0.472529
0.301898
0.197235
0.216336
0.328513
0.440575
0.466595
0.392572
0.283486
0.231054
0.287195
0.426051
0.554347
0.561877
0.379635
0.0287056
-0.363131
-0.625199
-0.64484
-0.414249
-0.0349923
0.315968
0.483507
0.417767
0.184699
-0.071685
-0.205496
-0.14732
0.0685382
0.330883
0.521649
0.589294
0.564103
0.51724
0.508113
0.548084
0.593794
0.572892
0.433268
0.19457
-0.0422118
-0.153598
-0.0748852
0.155002
0.406169
0.527313
0.424329
0.106967
-0.297219
-0.599475
-0.660165
-0.451608
-0.0672177
0.30836
0.479967
0.365143
0.0305554
-0.367214
-0.636119
-0.654035
-0.41277
-0.019055
0.340858
0.499728
0.390715
0.0639237
-0.328688
-0.602131
-0.635955
-0.416838
-0.0400366
0.32005
0.498719
0.420304
0.117376
-0.276293
-0.579674
-0.659996
-0.484258
-0.125552
0.253556
0.477769
0.448759
0.176979
-0.219095
-0.555981
-0.682588
-0.545945
-0.202518
0.192137
0.452047
0.460038
0.212025
-0.181141
-0.5332
-0.68145
-0.562144
-0.225751
0.17332
0.444628
0.46481
0.226037
-0.162667
-0.515282
-0.667715
-0.555238
-0.228129
0.160727
0.424013
0.442336
0.213301
-0.149932
-0.463539
-0.570659
-0.417521
-0.0720022
0.299007
0.513188
0.46729
0.173998
-0.236652
-0.568007
-0.665697
-0.487914
-0.116091
0.271231
0.493818
0.472905
0.255553
-0.0183497
-0.188459
-0.162154
0.0414936
0.310491
0.513593
0.586458
0.556754
0.501928
0.489748
0.53589
0.594399
0.583825
0.435613
0.148999
-0.180657
-0.407213
-0.424151
-0.22125
0.104373
0.385268
0.473146
0.315739
-0.0175968
-0.361556
-0.54527
-0.483967
-0.206617
0.159976
0.45593
0.584503
0.551759
0.436326
0.337643
0.322233
0.387766
0.469845
0.490524
0.419658
0.302838
0.228789
0.262438
0.395641
0.547372
0.608961
0.499559
0.212074
-0.15779
-0.446401
-0.519297
-0.342325
-0.000422836
0.331266
0.530458
0.398706
0.076092
-0.299566
-0.551894
-0.565607
-0.334194
0.0372501
0.370019
0.506082
0.38305
0.0518857
-0.335831
-0.597749
-0.618246
-0.389513
-0.0111468
0.342514
0.511572
0.425796
0.121107
-0.267789
-0.561582
-0.631211
-0.448304
-0.0897346
0.282814
0.500634
0.472814
0.212689
-0.165052
-0.484603
-0.600854
-0.464338
-0.133226
0.241661
0.486496
0.495358
0.266874
-0.0962437
-0.421851
-0.557336
-0.442825
-0.128755
0.239421
0.489754
0.51499
0.310141
-0.0299033
-0.342753
-0.480866
-0.384157
-0.0991744
0.238243
0.469175
0.497034
0.323318
0.0409241
-0.202469
-0.279206
-0.146802
0.133746
0.425376
0.586144
0.535757
0.281016
-0.0761399
-0.37033
-0.461841
-0.309246
0.0104996
0.328957
0.474778
0.367676
0.0558578
-0.301642
-0.519246
-0.488583
-0.222279
0.156147
0.478242
0.636496
0.631639
0.538469
0.450381
0.42924
0.472298
0.516749
0.483957
0.340858
0.137268
-0.0188398
-0.033461
0.111506
0.34029
0.517872
0.520824
0.299625
-0.0833909
-0.464453
-0.67
-0.612385
-0.318094
0.0798228
0.399461
0.516423
0.421431
0.204889
0.0065374
-0.0587648
0.0389907
0.238229
0.430039
0.531063
0.533783
0.494179
0.478919
0.517914
0.587298
0.624401
0.562124
0.372803
0.106417
-0.119216
-0.188911
-0.0631522
0.193124
0.438211
0.598518
0.488777
0.238277
-0.0560278
-0.256627
-0.265639
-0.0770881
0.218205
0.474998
0.570957
0.459099
0.180536
-0.141851
-0.355756
-0.361838
-0.157797
0.162849
0.451922
0.583813
0.50775
0.255083
-0.065508
-0.30638
-0.357334
-0.196444
0.103704
0.405892
0.57856
0.556116
0.351715
0.0537222
-0.200039
-0.290208
-0.175693
0.0903215
0.383156
0.570708
0.577852
0.405986
0.130701
-0.119064
-0.222954
-0.132214
0.10914
0.385544
0.571644
0.594961
0.454398
0.215025
-0.0104633
-0.113873
-0.0485279
0.14984
0.383088
0.545314
0.576998
0.480879
0.31318
0.16273
0.109372
0.181802
0.344089
0.516345
0.616057
0.590425
0.432281
0.195816
-0.0104992
-0.079849
0.0270079
0.251792
0.46065
0.513833
0.339204
-0.0215676
-0.413104
-0.649623
-0.621787
-0.33933
0.0713677
0.423499
0.583379
0.534918
0.359212
0.182917
0.113233
0.181324
0.331089
0.460972
0.496015
0.43857
0.358026
0.334925
0.403924
0.528695
0.620236
0.583838
0.369798
0.018775
-0.332744
-0.527047
-0.477974
-0.209503
0.14803
0.415215
0.463579
0.276856
-0.0456075
-0.334469
-0.444005
-0.324724
-0.0344802
0.293251
0.525761
0.608192
0.571874
0.491316
0.438132
0.445733
0.493849
0.524102
0.483122
0.36951
0.245265
0.193782
0.258035
0.407183
0.552643
0.59888
0.549843
0.418999
0.251505
0.130161
0.123224
0.238708
0.418013
0.57054
0.623047
0.547129
0.366531
0.157425
0.0201806
0.0235303
0.165732
0.376903
0.558824
0.63713
0.585784
0.425751
0.22316
0.0711939
0.0430518
0.151118
0.341425
0.524545
0.624955
0.610295
0.490967
0.316813
0.16744
0.115996
0.18737
0.34426
0.509651
0.61149
0.614193
0.521393
0.372432
0.23569
0.178986
0.229956
0.359684
0.502102
0.59512
0.609122
0.546978
0.437353
0.330028
0.276373
0.299682
0.382058
0.479614
0.552482
0.582581
0.569836
0.525241
0.469548
0.42652
0.411377
0.426874
0.466486
0.514493
0.54302
0.521552
0.445513
0.355481
0.315402
0.363779
0.478321
0.579536
0.570151
0.387537
0.054394
-0.304177
-0.524639
-0.503739
-0.249097
0.117334
0.412906
0.500681
0.35806
0.0760925
-0.187033
-0.290927
-0.184792
0.0755966
0.361834
0.552874
0.607586
0.567499
0.509734
0.496233
0.539206
0.595046
0.589841
0.46541
0.229264
-0.027375
-0.178172
-0.142606
0.0640433
0.330692
0.504482
0.471235
0.21097
-0.179772
-0.523397
-0.663899
-0.54345
-0.214316
0.178907
0.470478
0.569759
0.49001
0.317405
0.165748
0.121145
0.199101
0.344088
0.470838
0.523358
0.508407
0.476666
0.475865
0.517518
0.574267
0.457
0.496479
0.510493
0.488146
0.453518
0.441088
0.464773
0.510544
0.552211
0.568346
0.547204
0.489713
0.417383
0.368139
0.371167
0.423855
0.494906
0.549356
0.569336
0.553316
0.507584
0.448238
0.403168
0.397167
0.431574
0.482668
0.522209
0.537885
0.532701
0.512161
0.482022
0.455188
0.447915
0.464305
0.490202
0.507271
0.510455
0.507009
0.502353
0.495559
0.487936
0.485876
0.490651
0.492699
0.48357
0.470295
0.469797
0.489247
0.517923
0.538615
0.540512
0.519659
0.477869
0.430427
0.407376
0.43362
0.503694
0.578804
0.610386
0.568258
0.457387
0.323458
0.236605
0.247786
0.349511
0.47893
0.565921
0.58477
0.562536
0.545784
0.560005
0.587132
0.571624
0.455496
0.23117
-0.0262621
-0.193632
-0.180258
0.0123443
0.28048
0.467846
0.452765
0.212598
-0.155996
-0.477929
-0.600323
-0.467307
-0.134977
0.249601
0.527838
0.623882
0.563116
0.432297
0.330485
0.319401
0.391977
0.481389
0.507845
0.437559
0.311881
0.21943
0.232519
0.355644
0.516921
0.605511
0.527976
0.25743
-0.13017
-0.474731
-0.625461
-0.52026
-0.205761
0.174169
0.445264
0.50028
0.340005
0.0607863
-0.188068
-0.280859
-0.176913
0.0704956
0.346576
0.541654
0.611735
0.581364
0.507274
0.44545
0.429274
0.159191
0.298075
0.460477
0.577293
0.617401
0.586726
0.509349
0.41911
0.355034
0.345825
0.392501
0.467395
0.533587
0.566769
0.558599
0.509354
0.431022
0.354434
0.31858
0.345049
0.421656
0.510586
0.573023
0.585556
0.540042
0.445633
0.337151
0.266687
0.273118
0.355459
0.472657
0.569644
0.606137
0.56621
0.459365
0.326058
0.228933
0.219197
0.303893
0.44056
0.562956
0.616897
0.57791
0.45475
0.294876
0.174194
0.15715
0.255936
0.420712
0.567914
0.626313
0.565742
0.406002
0.218743
0.102129
0.123465
0.272858
0.463485
0.58017
0.543403
0.351063
0.0896557
-0.101751
-0.115458
0.0560323
0.317225
0.534623
0.624293
0.589747
0.497803
0.42807
0.421858
0.456671
0.467981
0.407973
0.294392
0.202648
0.206826
0.319774
0.473998
0.554997
0.463942
0.176956
-0.218059
-0.552144
-0.676609
-0.53731
-0.190977
0.208179
0.484708
0.54385
0.403534
0.167903
-0.0239454
-0.0687826
0.0504859
0.263738
0.458812
0.554279
0.546157
0.49327
0.466715
0.502318
0.57852
0.628022
0.573804
0.375707
0.0742519
-0.209789
-0.344538
-0.265433
-0.00950775
0.294613
0.489295
0.469912
0.228438
-0.137064
-0.458597
-0.59065
-0.479436
-0.172908
0.197454
0.480121
0.588383
0.526192
0.361937
0.19527
0.115382
-0.212983
0.0117837
0.30167
0.533426
0.625694
0.56198
0.380038
0.161218
0.00496745
-0.0176928
0.101537
0.30502
0.498841
0.601672
0.574487
0.423765
0.203846
0.00765473
-0.0750777
-0.00454831
0.188713
0.416269
0.577084
0.604815
0.484472
0.256407
0.0144951
-0.130989
-0.111444
0.0656867
0.318148
0.528773
0.605653
0.515354
0.289204
0.0219567
-0.162772
-0.177193
-0.0132416
0.25235
0.493535
0.600754
0.526083
0.294401
0.00370352
-0.209181
-0.241011
-0.075241
0.208486
0.469943
0.582813
0.492558
0.234369
-0.0706821
-0.266832
-0.252945
-0.0394958
0.25281
0.45421
0.442117
0.20767
-0.131876
-0.389207
-0.420566
-0.209557
0.126928
0.409642
0.51179
0.425635
0.246558
0.108065
0.100946
0.222182
0.387749
0.501576
0.526865
0.499584
0.484523
0.51909
0.582441
0.604483
0.50649
0.256484
-0.0845836
-0.376995
-0.486869
-0.361849
-0.0569651
0.279922
0.481444
0.452082
0.207818
-0.130989
-0.395266
-0.458998
-0.294601
0.0232145
0.351982
0.56403
0.617708
0.555653
0.461068
0.410603
0.434321
0.500493
0.537054
0.480913
0.32938
0.154006
0.0565451
0.100838
0.269853
0.469414
0.576807
0.500484
0.222651
-0.172374
-0.521528
-0.676324
-0.576222
-0.262808
0.128622
0.426716
0.51876
0.393351
0.129249
-0.136369
-0.271447
-0.513585
-0.238911
0.131262
0.435011
0.550868
0.445054
0.170055
-0.150215
-0.370146
-0.39385
-0.212056
0.0955516
0.390519
0.545326
0.497971
0.263216
-0.0669952
-0.349967
-0.462411
-0.356172
-0.0738719
0.260855
0.498421
0.538103
0.360647
0.0333057
-0.302753
-0.497138
-0.46582
-0.220715
0.130919
0.427199
0.53563
0.409066
0.0969768
-0.263169
-0.505341
-0.521763
-0.304359
0.0516769
0.380191
0.529413
0.432744
0.127569
-0.250004
-0.521844
-0.563479
-0.355975
0.00722943
0.350676
0.507625
0.40401
0.0849733
-0.294946
-0.54378
-0.540924
-0.29293
0.0675275
0.340501
0.374375
0.151876
-0.199672
-0.476158
-0.521051
-0.314054
0.0211189
0.287679
0.34128
0.175287
-0.0866466
-0.271006
-0.259052
-0.0491372
0.250649
0.497594
0.610199
0.601529
0.542589
0.505442
0.517267
0.544524
0.517742
0.386529
0.17196
-0.0306463
-0.111831
-0.0201865
0.201841
0.432117
0.531555
0.415037
0.0956671
-0.302847
-0.602337
-0.6728
-0.485638
-0.118126
0.269201
0.517419
0.558916
0.430339
0.237045
0.100587
0.0965358
0.217762
0.385627
0.502926
0.519431
0.460312
0.398045
0.39761
0.473328
0.578947
0.632221
0.555037
0.315858
-0.0306967
-0.34993
-0.503476
-0.425574
-0.150299
0.194547
0.443475
0.480131
0.283924
-0.0627863
-0.400884
-0.575918
-0.619185
-0.336305
0.0536453
0.373704
0.483576
0.34063
0.00760124
-0.365345
-0.609944
-0.624194
-0.40245
-0.0356056
0.314623
0.495879
0.435269
0.154846
-0.230537
-0.552172
-0.674057
-0.547921
-0.221761
0.16571
0.441427
0.487759
0.284559
-0.0860727
-0.460013
-0.671103
-0.632197
-0.357651
0.0366271
0.370465
0.493563
0.353139
0.00744633
-0.387445
-0.649493
-0.66562
-0.428217
-0.0374835
0.326329
0.494873
0.394108
0.0661861
-0.339059
-0.629814
-0.675547
-0.456007
-0.0665758
0.307633
0.486584
0.388721
0.059561
-0.34005
-0.609272
-0.619741
-0.370872
0.00980756
0.320984
0.405728
0.239956
-0.0625685
-0.314649
-0.368449
-0.203052
0.064906
0.250579
0.220357
-0.0214066
-0.334397
-0.531761
-0.493317
-0.224966
0.14591
0.445322
0.564554
0.50961
0.371271
0.263235
0.256536
0.341701
0.443281
0.479404
0.425418
0.330756
0.277942
0.320807
0.44478
0.570508
0.59549
0.44606
0.124868
-0.262288
-0.551439
-0.61838
-0.435501
-0.0814853
0.280006
0.483517
0.451801
0.221267
-0.0794707
-0.291561
-0.309976
-0.128492
0.165182
0.437178
0.588996
0.607559
0.547607
0.484933
0.473658
0.518214
0.571511
0.5615
0.436812
0.213012
-0.0187216
-0.143472
-0.0939772
0.109407
0.362772
0.52936
0.506629
0.26803
-0.113505
-0.48027
-0.67464
-0.486223
-0.23165
0.120107
0.402819
0.484922
0.325554
-0.0133478
-0.382121
-0.614863