# vtk DataFile Version 3.0
PFC simulation results
ASCII
DATASET STRUCTURED_POINTS
DIMENSIONS 128 128 1
ORIGIN 0 0 0
SPACING 1 1 1
POINT_DATA 16384
SCALARS psi double
LOOKUP_TABLE default
0.2
0.2
0.2
0.2
0.2
0.2
0.2
0.2
0.2
0.2
0.2
0.2
0.2
0.2
0.2
0.2
0.2
0.2
0.2
0.199998
0.199997
0.199999
0.200005
0.200008
0.200005
0.200002
0.200004
0.200001
0.199992
0.199989
0.19999
0.199992
0.199993
0.199992
0.19999
0.199989
0.199992
0.200001
0.200004
0.200002
0.200005
0.200008
0.200005
0.199999
0.199997
0.199998
0.2
0.2
0.2
0.2
0.2
0.199998
0.199996
0.199998
0.200004
0.200008
0.200006
0.2
0.200001
0.200001
0.199994
0.19999
0.199991
0.199994
0.199996
0.199994
0.199991
0.19999
0.199994
0.200001
0.200001
0.2
0.200006
0.200008
0.200004
0.199998
0.199996
0.199998
0.2
0.2
0.2
0.2
0.2
0.199999
0.199996
0.199996
0.200001
0.200003
0.200001
0.2
0.200005
0.200004
0.199997
0.199994
0.199992
0.199991
0.19999
0.199991
0.199993
0.199996
0.2
0.200006
0.200005
0.199999
0.200001
0.200004
0.200002
0.199996
0.199996
0.199999
0.2
0.2
0.2
0.2
0.2
0.2
0.2
0.2
0.2
0.2
0.2
0.2
0.2
0.2
0.2
0.2
0.2
0.2
0.2
0.2
0.2
0.2
0.2
0.2
0.2
0.2
0.2
0.2
0.2
0.2
0.2
0.2
0.2
0.2
0.2
0.2
0.2
0.200002
0.200003
0.200001
0.199995
0.199992
0.199995
0.199998
0.199996
0.199999
0.200009
0.200012
0.200011
0.200009
0.200008
0.200009
0.200011
0.200012
0.200009
0.199999
0.199996
0.199998
0.199995
0.199992
0.199995
0.200001
0.200003
0.200002
0.2
0.2
0.2
0.2
0.2
0.200002
0.200004
0.200002
0.199996
0.199993
0.199995
0.2
0.199999
0.199999
0.200006
0.200009
0.200008
0.200006
0.200004
0.200006
0.200008
0.200009
0.200006
0.199999
0.199999
0.2
0.199995
0.199993
0.199996
0.200002
0.200004
0.200002
0.2
0.2
0.2
0.2
0.2
0.200001
0.200004
0.200004
0.199999
0.199997
0.199998
0.2
0.199995
0.199996
0.200003
0.200007
0.200008
0.20001
0.200011
0.20001
0.200008
0.200004
0.199999
0.199994
0.199994
0.200001
0.199999
0.199996
0.199998
0.200004
0.200004
0.200001
0.2
0.2
0.2
0.2
0.2
0.2
0.2
0.2
0.2
0.2
0.2
0.2
0.2
0.2
0.2
0.2
0.2
0.2
0.2
0.2
0.2
0.2
0.2
0.2
0.2
0.2
0.2
0.2
0.2
0.2
0.2
0.2
0.2
0.2
0.2
0.2
0.2
0.199998
0.199996
0.199999
0.200006
0.200009
0.200006
0.200002
0.200004
0.200001
0.19999
0.199987
0.199988
0.19999
0.199991
0.19999
0.199988
0.199987
0.19999
0.200001
0.200004
0.200002
0.200006
0.200009
0.200006
0.199999
0.199996
0.199998
0.2
0.2
0.2
0.2
0.2
0.199998
0.199996
0.199998
0.200003
0.200007
0.200005
0.2
0.200001
0.200001
0.199995
0.199991
0.199992
0.199995
0.199996
0.199995
0.199992
0.199991
0.199995
0.200001
0.200001
0.2
0.200005
0.200007
0.200003
0.199998
0.199996
0.199998
0.2
0.2
0.2
0.2
0.2
0.199999
0.199996
0.199996
0.200002
0.200003
0.200002
0.2
0.200006
0.200005
0.199996
0.199993
0.199991
0.199989
0.199988
0.199989
0.199992
0.199996
0.200001
0.200007
0.200006
0.199999
0.200001
0.200004
0.200002
0.199996
0.199996
0.199999
0.2
0.2
0.2
0.2
0.2
0.2
0.2
0.2
0.2
0.2
0.2
0.2
0.2
0.2
0.2
0.2
0.2
0.2
0.2
0.2
0.2
0.2
0.2
0.2
0.2
0.2
0.2
0.2
0.2
0.2
0.2
0.2
0.2
0.2
0.2
0.2
0.2
0.200002
0.200004
0.200001
0.199994
0.19999
0.199994
0.199998
0.199995
0.199999
0.200011
0.200015
0.200013
0.200011
0.20001
0.200011
0.200013
0.200015
0.200011
0.199999
0.199995
0.199998
0.199994
0.19999
0.199994
0.200001
0.200004
0.200002
0.2
0.2
0.2
0.2
0.2
0.200002
0.200004
0.200002
0.199997
0.199993
0.199995
0.2
0.199999
0.199999
0.200005
0.200008
0.200007
0.200005
0.200004
0.200005
0.200007
0.200008
0.200005
0.199999
0.199999
0.2
0.199995
0.199993
0.199997
0.200002
0.200004
0.200002
0.2
0.2
0.2
0.2
0.2
0.200001
0.200005
0.200004
0.199998
0.199997
0.199998
0.2
0.199994
0.199995
0.200004
0.200008
0.20001
0.200012
0.200014
0.200012
0.200009
0.200005
0.199999
0.199992
0.199993
0.200001
0.199998
0.199995
0.199998
0.200004
0.200004
0.200001
0.2
0.2
0.2
0.2
0.2
0.2
0.2
0.2
0.2
0.2
0.2
0.2
0.2
0.2
0.2
0.2
0.2
0.2
0.2
0.2
0.2
0.2
0.2
0.2
0.2
0.2
0.2
0.2
0.2
0.2
0.2
0.2
0.2
0.2
0.2
0.2
0.2
0.199998
0.199996
0.199999
0.200007
0.20001
0.200007
0.200002
0.200005
0.200001
0.199989
0.199985
0.199986
0.199989
0.19999
0.199989
0.199986
0.199985
0.199989
0.200001
0.200005
0.200002
0.200007
0.20001
0.200007
0.199999
0.199996
0.199998
0.2
0.2
0.2
0.2
0.2
0.199999
0.199997
0.199998
0.200003
0.200006
0.200005
0.2
0.200001
0.200001
0.199995
0.199992
0.199993
0.199995
0.199997
0.199995
0.199993
0.199992
0.199995
0.200001
0.200001
0.2
0.200005
0.200006
0.200003
0.199998
0.199997
0.199999
0.2
0.2
0.2
0.2
0.2
0.199998
0.199995
0.199995
0.200002
0.200004
0.200002
0.2
0.200007
0.200006
0.199995
0.199991
0.199989
0.199987
0.199985
0.199987
0.19999
0.199995
0.200001
0.200009
0.200008
0.2
0.200002
0.200005
0.200002
0.199995
0.199995
0.199999
0.2
0.2
0.2
0.2
0.2
0.2
0.2
0.2
0.2
0.2
0.2
0.2
0.2
0.2
0.2
0.2
0.2
0.2
0.2
0.2
0.2
0.2
0.2
0.2
0.2
0.2
0.2
0.2
0.2
0.2
0.2
0.2
0.2
0.2
0.2
0.2
0.2
0.200002
0.200004
0.200001
0.199993
0.199989
0.199993
0.199998
0.199994
0.199998
0.200012
0.200017
0.200015
0.200012
0.200011
0.200012
0.200015
0.200017
0.200012
0.199998
0.199994
0.199998
0.199993
0.199989
0.199993
0.200001
0.200004
0.200002
0.2
0.2
0.2
0.2
0.2
0.200001
0.200003
0.200002
0.199997
0.199994
0.199996
0.2
0.2
0.199999
0.200005
0.200007
0.200006
0.200004
0.200003
0.200004
0.200006
0.200007
0.200005
0.199999
0.2
0.2
0.199996
0.199994
0.199997
0.200002
0.200003
0.200001
0.2
0.2
0.2
0.2
0.2
0.200002
0.200006
0.200005
0.199998
0.199996
0.199998
0.2
0.199992
0.199994
0.200005
0.20001
0.200012
0.200014
0.200016
0.200014
0.20001
0.200005
0.199999
0.19999
0.199992
0.200001
0.199999
0.199995
0.199998
0.200005
0.200005
0.200002
0.2
0.2
0.2
0.2
0.2
0.2
0.2
0.2
0.2
0.2
0.2
0.2
0.2
0.2
0.2
0.2
0.2
0.2
0.2
0.2
0.2
0.2
0.2
0.2
0.2
0.2
0.2
0.2
0.2
0.2
0.2
0.2
0.2
0.2
0.2
0.2
0.2
0.199998
0.199995
0.199999
0.200007
0.200012
0.200007
0.200002
0.200005
0.2
0.199984
0.199978
0.19998
0.199982
0.199984
0.199982
0.19998
0.199978
0.199984
0.2
0.200005
0.200002
0.200007
0.200012
0.200007
0.199999
0.199995
0.199998
0.2
0.2
0.2
0.2
0.2
0.199999
0.199997
0.199998
0.200003
0.200006
0.200004
0.2
0.2
0.200001
0.199996
0.199993
0.199994
0.199996
0.199997
0.199996
0.199994
0.199993
0.199996
0.200001
0.2
0.2
0.200004
0.200006
0.200003
0.199998
0.199997
0.199999
0.2
0.2
0.2
0.2
0.2
0.199998
0.199994
0.199995
0.200002
0.200004
0.200002
0.2
0.200008
0.200006
0.199993
0.199988
0.199986
0.199983
0.199981
0.199982
0.199986
0.199992
0.199999
0.200009
0.200008
0.199998
0.200001
0.200006
0.200003
0.199995
0.199995
0.199999
0.2
0.2
0.2
0.2
0.2
0.2
0.2
0.2
0.2
0.2
0.2
0.2
0.2
0.2
0.2
0.2
0.2
0.2
0.2
0.2
0.2
0.2
0.2
0.2
0.2
0.2
0.2
0.2
0.2
0.2
0.2
0.2
0.2
0.2
0.2
0.2
0.200001
0.200002
0.200005
0.2
0.199991
0.199986
0.199991
0.199998
0.199994
0.200001
0.200019
0.200026
0.200025
0.200022
0.200021
0.200022
0.200025
0.200026
0.200019
0.200001
0.199994
0.199998
0.199991
0.199986
0.199991
0.2
0.200005
0.200002
0.200001
0.2
0.2
0.2
0.2
0.200001
0.200003
0.200001
0.199997
0.199995
0.199996
0.2
0.2
0.2
0.200004
0.200007
0.200006
0.200004
0.200003
0.200004
0.200006
0.200007
0.200004
0.2
0.2
0.2
0.199996
0.199995
0.199997
0.200001
0.200003
0.200001
0.2
0.2
0.2
0.2
0.200001
0.200002
0.200006
0.200005
0.199997
0.199995
0.199998
0.2
0.199991
0.199994
0.200009
0.200016
0.200019
0.200022
0.200025
0.200023
0.200018
0.20001
0.2
0.199988
0.199988
0.199999
0.199996
0.199991
0.199996
0.200005
0.200006
0.200002
0.200001
0.2
0.2
0.2
0.2
0.2
0.2
0.2
0.2
0.2
0.2
0.2
0.2
0.2
0.2
0.2
0.2
0.2
0.2
0.2
0.2
0.2
0.2
0.2
0.2
0.2
0.2
0.2
0.2
0.2
0.2
0.2
0.2
0.2
0.2
0.2
0.199999
0.199997
0.199994
0.199999
0.20001
0.200017
0.200013
0.200008
0.200013
0.200008
0.199989
0.199984
0.199989
0.199994
0.199996
0.199994
0.199989
0.199984
0.199989
0.200008
0.200013
0.200008
0.200013
0.200017
0.20001
0.199999
0.199994
0.199997
0.199999
0.2
0.2
0.2
0.2
0.199999
0.199997
0.199999
0.200003
0.200005
0.200004
0.2
0.2
0.2
0.199996
0.199994
0.199995
0.199996
0.199997
0.199996
0.199995
0.199994
0.199996
0.2
0.2
0.2
0.200004
0.200005
0.200003
0.199999
0.199997
0.199999
0.2
0.2
0.2
0.2
0.199999
0.199997
0.199992
0.199993
0.200003
0.200007
0.200005
0.200003
0.200014
0.20001
0.199994
0.199987
0.199985
0.199981
0.19998
0.199984
0.199991
0.200001
0.200012
0.200023
0.20002
0.200004
0.200005
0.200008
0.200002
0.199992
0.199993
0.199997
0.2
0.2
0.2
0.2
0.2
0.2
0.2
0.2
0.2
0.2
0.2
0.2
0.2
0.2
0.2
0.2
0.2
0.2
0.2
0.2
0.2
0.2
0.2
0.2
0.2
0.2
0.2
0.2
0.2
0.2
0.2
0.2
0.2
0.2
0.2
0.2
0.2
0.200002
0.200007
0.200003
0.199993
0.199987
0.199991
0.199994
0.199985
0.199989
0.200009
0.200013
0.200005
0.199997
0.199994
0.199997
0.200005
0.200013
0.200009
0.199989
0.199985
0.199994
0.199991
0.199987
0.199993
0.200003
0.200007
0.200002
0.2
0.2
0.2
0.2
0.2
0.200001
0.200003
0.200001
0.199998
0.199995
0.199996
0.2
0.2
0.2
0.200004
0.200006
0.200005
0.200004
0.200003
0.200004
0.200005
0.200006
0.200004
0.2
0.2
0.2
0.199996
0.199995
0.199998
0.200001
0.200003
0.200001
0.2
0.2
0.2
0.2
0.199999
0.200001
0.200008
0.200009
0.200001
0.199998
0.199997
0.199997
0.199982
0.199984
0.200001
0.200006
0.200006
0.200008
0.200009
0.200007
0.200002
0.199998
0.199993
0.199986
0.199993
0.200011
0.200007
0.199999
0.2
0.200008
0.200007
0.200001
0.199999
0.2
0.2
0.2
0.2
0.2
0.2
0.2
0.2
0.2
0.2
0.2
0.2
0.2
0.2
0.2
0.2
0.2
0.2
0.2
0.2
0.2
0.2
0.2
0.2
0.2
0.2
0.2
0.2
0.2
0.2
0.2
0.2
0.2
0.199999
0.199999
0.2
0.199999
0.199997
0.200003
0.200011
0.200012
0.199997
0.199983
0.199985
0.199972
0.199937
0.199918
0.199909
0.199904
0.199902
0.199904
0.199909
0.199918
0.199937
0.199972
0.199985
0.199983
0.199997
0.200012
0.200011
0.200003
0.199997
0.199999
0.2
0.199999
0.199999
0.2
0.2
0.199999
0.199997
0.199999
0.200002
0.200005
0.200004
0.2
0.2
0.2
0.199996
0.199994
0.199995
0.199997
0.199997
0.199997
0.199995
0.199994
0.199996
0.2
0.2
0.2
0.200004
0.200005
0.200002
0.199999
0.199997
0.199999
0.2
0.2
0.199999
0.199999
0.199999
0.199999
0.199996
0.199997
0.200003
0.199999
0.199991
0.199986
0.200002
0.2
0.199978
0.199969
0.199964
0.199955
0.199945
0.199938
0.199936
0.19994
0.199952
0.199973
0.199983
0.199979
0.199996
0.200012
0.200011
0.199999
0.199997
0.2
0.2
0.199999
0.199999
0.2
0.2
0.2
0.2
0.2
0.2
0.2
0.2
0.2
0.2
0.2
0.2
0.2
0.2
0.2
0.2
0.2
0.2
0.2
0.2
0.2
0.2
0.2
0.2
0.2
0.2
0.2
0.2
0.2
0.2
0.199999
0.2
0.200001
0.200004
0.200007
0.200008
0.199994
0.199971
0.199959
0.199975
0.200001
0.200016
0.200048
0.2001
0.200128
0.200141
0.20015
0.200154
0.20015
0.200141
0.200128
0.2001
0.200048
0.200016
0.200001
0.199975
0.199959
0.199971
0.199994
0.200008
0.200007
0.200004
0.200001
0.2
0.199999
0.2
0.200001
0.200003
0.200001
0.199998
0.199995
0.199997
0.2
0.2
0.2
0.200003
0.200006
0.200005
0.200003
0.200002
0.200003
0.200005
0.200006
0.200003
0.2
0.2
0.2
0.199997
0.199995
0.199998
0.200001
0.200003
0.200002
0.2
0.199999
0.199998
0.199999
0.200004
0.200009
0.200012
0.200001
0.199979
0.199974
0.199988
0.200009
0.200007
0.200024
0.20006
0.200081
0.200101
0.200124
0.20014
0.200135
0.200109
0.200066
0.200014
0.199961
0.19994
0.199953
0.199953
0.199957
0.199979
0.200004
0.200012
0.200007
0.200004
0.200001
0.2
0.199999
0.2
0.2
0.2
0.2
0.2
0.2
0.2
0.2
0.2
0.2
0.2
0.2
0.2
0.2
0.2
0.2
0.2
0.2
0.2
0.2
0.2
0.2
0.2
0.2
0.2
0.2
0.2
0.2
0.199999
0.2
0.200002
0.200004
0.200002
0.199992
0.199978
0.19998
0.200006
0.200046
0.200079
0.200107
0.200141
0.200143
0.200126
0.200159
0.200235
0.200308
0.200338
0.200308
0.200235
0.200159
0.200126
0.200143
0.200141
0.200107
0.200079
0.200046
0.200006
0.19998
0.199978
0.199992
0.200002
0.200004
0.200002
0.2
0.199999
0.199999
0.199998
0.199999
0.200002
0.200004
0.200003
0.2
0.2
0.2
0.199997
0.199995
0.199995
0.199997
0.199998
0.199997
0.199995
0.199995
0.199997
0.2
0.2
0.2
0.200003
0.200004
0.200002
0.199999
0.199998
0.199999
0.199999
0.199998
0.2
0.200005
0.200007
0.199998
0.199975
0.199965
0.199991
0.200029
0.200064
0.200078
0.200091
0.200065
0.200018
0.200007
0.200016
0.200034
0.200065
0.200116
0.200179
0.200232
0.200254
0.20024
0.200171
0.200073
0.20002
0.199994
0.199974
0.199963
0.199975
0.199994
0.200002
0.200003
0.200001
0.2
0.199999
0.2
0.2
0.2
0.2
0.2
0.2
0.2
0.2
0.2
0.2
0.2
0.2
0.2
0.2
0.2
0.2
0.2
0.2
0.2
0.2
0.2
0.2
0.2
0.2
0.2
0.2
0.199999
0.2
0.200002
0.200004
0.2
0.199992
0.199986
0.199993
0.20001
0.200037
0.200061
0.200057
0.199989
0.199854
0.199747
0.1997
0.199644
0.19958
0.199532
0.199513
0.199532
0.19958
0.199644
0.1997
0.199747
0.199854
0.199989
0.200057
0.200061
0.200037
0.20001
0.199993
0.199986
0.199992
0.2
0.200004
0.200002
0.2
0.2
0.200002
0.200001
0.199998
0.199996
0.199997
0.2
0.2
0.2
0.200003
0.200005
0.200004
0.200003
0.200002
0.200003
0.200004
0.200005
0.200003
0.2
0.2
0.2
0.199997
0.199996
0.199998
0.200002
0.200003
0.2
0.199998
0.2
0.200006
0.20001
0.2
0.199981
0.19998
0.200011
0.20006
0.200098
0.200073
0.199984
0.199855
0.199797
0.199802
0.19977
0.199697
0.199613
0.199559
0.199568
0.199655
0.199803
0.199969
0.200098
0.200191
0.200236
0.200188
0.200106
0.200044
0.20001
0.199988
0.199983
0.199992
0.2
0.200003
0.200002
0.2
0.199999
0.2
0.2
0.2
0.2
0.2
0.2
0.2
0.2
0.2
0.2
0.2
0.2
0.2
0.2
0.2
0.2
0.2
0.2
0.2
0.2
0.2
0.2
0.2
0.2
0.199999
0.199999
0.200002
0.200004
0.199999
0.199988
0.199981
0.199993
0.200029
0.200086
0.200109
0.200022
0.199801
0.199553
0.199406
0.199304
0.19915
0.198921
0.198567
0.19819
0.198023
0.19819
0.198567
0.198921
0.19915
0.199304
0.199406
0.199553
0.199801
0.200022
0.200109
0.200086
0.200029
0.199993
0.199981
0.199988
0.199999
0.200004
0.200002
0.199998
0.199997
0.199999
0.200002
0.200004
0.200003
0.2
0.2
0.2
0.199997
0.199995
0.199996
0.199997
0.199998
0.199997
0.199996
0.199995
0.199997
0.2
0.2
0.2
0.200003
0.200004
0.200002
0.199999
0.199996
0.199996
0.2
0.200008
0.200012
0.199998
0.199967
0.199957
0.200003
0.200098
0.20014
0.200013
0.199774
0.199598
0.199634
0.199751
0.199822
0.199828
0.199727
0.199532
0.199297
0.199054
0.198835
0.198717
0.198795
0.199079
0.199428
0.199729
0.19999
0.200144
0.200164
0.200098
0.200031
0.199993
0.199982
0.19999
0.199999
0.200003
0.200002
0.2
0.199999
0.2
0.2
0.2
0.2
0.2
0.2
0.2
0.2
0.2
0.2
0.2
0.2
0.2
0.2
0.2
0.2
0.2
0.2
0.2
0.2
0.2
0.2
0.199999
0.199999
0.200002
0.200005
0.2
0.199987
0.199983
0.200012
0.20007
0.200106
0.200041
0.199843
0.199597
0.199531
0.199841
0.200476
0.20127
0.202001
0.202443
0.202544
0.202397
0.202286
0.202397
0.202544
0.202443
0.202001
0.20127
0.200476
0.199841
0.199531
0.199597
0.199843
0.200041
0.200106
0.20007
0.200012
0.199983
0.199987
0.2
0.200005
0.200003
0.200001
0.2
0.199998
0.199996
0.199997
0.2
0.2
0.2
0.200003
0.200005
0.200004
0.200003
0.200002
0.200003
0.200004
0.200005
0.200003
0.2
0.2
0.2
0.199997
0.199996
0.199998
0.2
0.2
0.200001
0.200008
0.200013
0.199997
0.199959
0.19995
0.200032
0.20017
0.200165
0.199877
0.1995
0.199416
0.199823
0.200432
0.200941
0.201239
0.201449
0.201815
0.202313
0.202688
0.202633
0.201983
0.200915
0.199847
0.199105
0.198832
0.198933
0.199186
0.199525
0.199862
0.200079
0.200121
0.200065
0.200009
0.199987
0.19999
0.199999
0.200003
0.200002
0.2
0.199999
0.2
0.2
0.2
0.2
0.2
0.2
0.2
0.2
0.2
0.2
0.2
0.2
0.2
0.2
0.2
0.2
0.2
0.2
0.2
0.2
0.199999
0.199998
0.200001
0.200006
0.200003
0.199987
0.199979
0.200015
0.200078
0.200074
0.199927
0.199704
0.199572
0.199772
0.200558
0.201883
0.20311
0.203609
0.20382
0.20482
0.206786
0.208751
0.209558
0.208751
0.206786
0.20482
0.20382
0.203609
0.20311
0.201883
0.200558
0.199772
0.199572
0.199704
0.199927
0.200074
0.200078
0.200015
0.199979
0.199987
0.200003
0.200005
0.199998
0.199997
0.200001
0.200004
0.200003
0.2
0.2
0.2
0.199997
0.199995
0.199996
0.199997
0.199998
0.199997
0.199996
0.199995
0.199997
0.2
0.2
0.2
0.200003
0.200004
0.200001
0.199997
0.199997
0.200005
0.200012
0.199997
0.199955
0.199941
0.200035
0.200198
0.200171
0.199764
0.199281
0.199425
0.20055
0.201947
0.202489
0.201704
0.200476
0.200024
0.20065
0.20193
0.203418
0.204884
0.206014
0.206397
0.205812
0.204429
0.202642
0.200952
0.199828
0.199334
0.199347
0.199635
0.199931
0.200065
0.200057
0.200012
0.199989
0.19999
0.199999
0.200003
0.200001
0.2
0.199999
0.2
0.2
0.2
0.2
0.2
0.2
0.2
0.2
0.2
0.2
0.2
0.2
0.2
0.2
0.2
0.2
0.2
0.2
0.2
0.199998
0.199999
0.200005
0.200008
0.199991
0.199972
0.200002
0.200084
0.200082
0.199871
0.199589
0.199584
0.20006
0.200949
0.201876
0.20162
0.198811
0.194478
0.190724
0.188571
0.189348
0.19227
0.193881
0.19227
0.189348
0.188571
0.190724
0.194478
0.198811
0.20162
0.201876
0.200949
0.20006
0.199584
0.199589
0.199871
0.200082
0.200084
0.200002
0.199972
0.199991
0.200009
0.200007
0.2
0.199996
0.199996
0.199998
0.2
0.2
0.2
0.200003
0.200005
0.200004
0.200003
0.200002
0.200003
0.200004
0.200005
0.200003
0.2
0.2
0.2
0.199997
0.199996
0.199997
0.200001
0.200007
0.200011
0.199998
0.199959
0.19994
0.200039
0.200245
0.200258
0.199742
0.199049
0.199376
0.201321
0.203281
0.202676
0.199008
0.195255
0.193508
0.192617
0.191492
0.189811
0.188208
0.188668
0.192452
0.198269
0.203117
0.205325
0.205676
0.204952
0.203324
0.201436
0.200046
0.199536
0.199647
0.199904
0.200044
0.200053
0.200012
0.199987
0.19999
0.200001
0.200003
0.200001
0.199999
0.2
0.2
0.2
0.2
0.2
0.2
0.2
0.2
0.2
0.2
0.2
0.2
0.200001
0.199999
0.2
0.199999
0.200001
0.2
0.199999
0.199997
0.200004
0.20001
0.2
0.199966
0.199977
0.200073
0.200123
0.199878
0.199508
0.199699
0.200839
0.202074
0.202115
0.200028
0.194661
0.186703
0.183096
0.184277
0.179154
0.169534
0.16436
0.163391
0.16436
0.169534
0.179154
0.184277
0.183096
0.186703
0.194661
0.200028
0.202115
0.202074
0.200839
0.199699
0.199508
0.199878
0.200123
0.200073
0.199977
0.199966
0.199999
0.200007
0.200003
0.199999
0.200003
0.200002
0.200001
0.2
0.200001
0.199997
0.199996
0.199996
0.199998
0.199997
0.199998
0.199996
0.199996
0.199997
0.200001
0.2
0.200001
0.200002
0.200003
0.2
0.200003
0.200005
0.199999
0.199967
0.19995
0.200034
0.200245
0.200283
0.199695
0.198749
0.199153
0.202017
0.204635
0.202034
0.193747
0.186592
0.188827
0.197836
0.201393
0.197969
0.191904
0.183813
0.175853
0.172239
0.174339
0.178695
0.183665
0.19075
0.197747
0.202314
0.203707
0.202468
0.200697
0.199802
0.199714
0.199897
0.200044
0.200057
0.20001
0.199982
0.199992
0.200002
0.200004
0.199999
0.2
0.199999
0.200001
0.2
0.2
0.2
0.2
0.2
0.2
0.199997
0.200003
0.199997
0.200003
0.199997
0.200003
0.199997
0.200004
0.199996
0.200002
0.199996
0.200014
0.200003
0.199979
0.199944
0.200047
0.200168
0.200014
0.199488
0.199626
0.201164
0.202752
0.201421
0.197394
0.194204
0.193385
0.196825
0.22634
0.278771
0.297463
0.281375
0.265383
0.260176
0.265383
0.281375
0.297463
0.278771
0.22634
0.196825
0.193385
0.194204
0.197394
0.201421
0.202752
0.201164
0.199626
0.199488
0.200014
0.200168
0.200047
0.199944
0.19998
0.200005
0.200015
0.199994
0.199998
0.199993
0.200004
0.199996
0.200003
0.199999
0.200008
0.200001
0.200006
0.199999
0.200006
0.200001
0.200007
0.2
0.200003
0.199997
0.200003
0.199993
0.199999
0.199996
0.200011
0.199999
0.199983
0.199956
0.200033
0.200197
0.200259
0.199694
0.198662
0.198812
0.202202
0.206044
0.202334
0.189511
0.182385
0.192371
0.218825
0.244575
0.2441
0.241472
0.259556
0.28114
0.283648
0.262931
0.231193
0.199626
0.17903
0.177062
0.181561
0.188551
0.197224
0.201646
0.20189
0.200778
0.199957
0.199713
0.199905
0.200064
0.200066
0.199991
0.199984
0.199993
0.200009
0.199998
0.200002
0.199996
0.200003
0.199997
0.200003
0.199997
0.200003
0.199997
0.200003
0.199992
0.200008
0.199992
0.200008
0.199992
0.200009
0.199992
0.200009
0.199989
0.200008
0.199994
0.200024
0.199978
0.199957
0.199971
0.200198
0.200172
0.199618
0.199187
0.200764
0.202927
0.200837
0.192606
0.186925
0.194949
0.216459
0.238928
0.292467
0.399495
0.476429
0.508805
0.529118
0.537494
0.529118
0.508805
0.476429
0.399495
0.292467
0.238928
0.216459
0.194949
0.186925
0.192606
0.200837
0.202927
0.200764
0.199186
0.199619
0.200172
0.200198
0.19997
0.199956
0.199975
0.200023
0.199996
0.200012
0.199991
0.20001
0.199992
0.200009
0.199989
0.200004
0.199988
0.200006
0.19999
0.200006
0.199988
0.200004
0.199989
0.200009
0.199991
0.200009
0.199992
0.200015
0.199995
0.200014
0.19997
0.199982
0.200001
0.200172
0.200169
0.199744
0.198747
0.198815
0.201952
0.207099
0.204272
0.186629
0.175714
0.213401
0.275467
0.28757
0.242303
0.169575
0.160717
0.256869
0.39573
0.492757
0.506167
0.45384
0.376668
0.312499
0.267538
0.214811
0.184373
0.186112
0.194471
0.199395
0.201066
0.200782
0.1998
0.19965
0.199928
0.200123
0.200028
0.199991
0.199973
0.200014
0.199994
0.200009
0.19999
0.200009
0.199992
0.200008
0.199992
0.200008
0.199992
0.200008
0.199994
0.200005
0.199995
0.200005
0.199995
0.200006
0.199995
0.200005
0.199992
0.200007
0.200004
0.200011
0.199954
0.199952
0.200099
0.200317
0.199884
0.198927
0.199645
0.203124
0.202756
0.192672
0.18517
0.195999
0.218321
0.225343
0.186701
0.154233
0.221695
0.368417
0.539042
0.6809
0.736285
0.6809
0.539042
0.368417
0.221695
0.154233
0.186701
0.225343
0.218321
0.195999
0.18517
0.192672
0.202756
0.203124
0.199645
0.198927
0.199884
0.200317
0.200099
0.199953
0.199956
0.200012
0.200002
0.200003
0.19999
0.200005
0.199995
0.200005
0.199997
0.20001
0.199998
0.200008
0.199996
0.200008
0.199998
0.20001
0.199996
0.200006
0.199993
0.200007
0.199989
0.200007
0.199993
0.200004
0.199966
0.200013
0.200097
0.200166
0.199763
0.19905
0.199151
0.202202
0.207096
0.206188
0.189231
0.168652
0.200945
0.322439
0.403749
0.277032
0.0153387
-0.201495
-0.229181
-0.0385697
0.269073
0.544715
0.685862
0.686589
0.608391
0.523462
0.434796
0.311034
0.223777
0.198987
0.194279
0.194823
0.199391
0.20189
0.200695
0.199537
0.199634
0.20008
0.200097
0.200011
0.199962
0.200006
0.199998
0.20001
0.199991
0.200007
0.199994
0.200007
0.199994
0.200006
0.199994
0.200006
0.200006
0.199994
0.200006
0.199994
0.200006
0.199993
0.200007
0.199991
0.200007
0.199995
0.20002
0.199974
0.199958
0.199996
0.200276
0.20018
0.199193
0.19848
0.201784
0.205864
0.197771
0.183263
0.213828
0.283941
0.28052
0.143673
-0.0914602
-0.272502
-0.251131
-0.0182652
0.320617
0.61092
0.723684
0.61092
0.320617
-0.0182652
-0.251131
-0.272502
-0.0914602
0.143673
0.28052
0.283941
0.213828
0.183263
0.197771
0.205864
0.201784
0.19848
0.199193
0.20018
0.200276
0.199995
0.199955
0.199974
0.200021
0.199999
0.20001
0.199991
0.200007
0.199994
0.200004
0.19999
0.200002
0.199992
0.200003
0.199992
0.200001
0.199991
0.200002
0.199996
0.200005
0.199994
0.200008
0.200002
0.200007
0.199976
0.199991
0.200057
0.200142
0.199875
0.199283
0.199374
0.202019
0.206043
0.204276
0.18923
0.17404
0.201031
0.318631
0.474445
0.446089
0.121324
-0.329147
-0.649241
-0.687139
-0.431964
0.00382506
0.431831
0.692159
0.738319
0.633879
0.489655
0.371905
0.283554
0.24474
0.243544
0.219494
0.194278
0.194475
0.201645
0.20247
0.200044
0.199349
0.19986
0.200166
0.200042
0.199976
0.199976
0.200014
0.199998
0.200005
0.199993
0.200006
0.199995
0.200005
0.199995
0.200005
0.199995
0.200012
0.199988
0.200012
0.199987
0.200014
0.199986
0.200015
0.199982
0.200019
0.199987
0.200023
0.199943
0.199994
0.20009
0.200319
0.199672
0.198525
0.199519
0.205804
0.206443
0.185814
0.175374
0.274051
0.423008
0.342565
-0.0108741
-0.440102
-0.711338
-0.687563
-0.379725
0.0761422
0.468493
0.620784
0.468493
0.0761421
-0.379725
-0.687563
-0.711338
-0.440102
-0.010874
0.342564
0.423008
0.274051
0.175374
0.185813
0.206443
0.205804
0.199519
0.198525
0.199673
0.200318
0.200091
0.199996
0.199945
0.200021
0.199984
0.200015
0.199983
0.200014
0.199986
0.200015
0.199992
0.200015
0.199991
0.200012
0.199992
0.200014
0.199994
0.200012
0.19999
0.200009
0.19999
0.200009
0.199989
0.200002
0.199971
0.200036
0.200095
0.200017
0.199496
0.199429
0.201317
0.204639
0.202329
0.18663
0.168647
0.201037
0.333585
0.52128
0.614886
0.442617
0.0002926
-0.510861
-0.850772
-0.885507
-0.609422
-0.132783
0.340046
0.61681
0.62253
0.416287
0.14697
-0.0311631
-0.0445027
0.0863729
0.228992
0.243549
0.198982
0.186113
0.19722
0.203711
0.201432
0.199338
0.19952
0.200148
0.200102
0.199998
0.199953
0.200017
0.199994
0.200013
0.199986
0.200012
0.199989
0.200011
0.199989
0.200011
0.199989
0.200007
0.199993
0.200008
0.199992
0.200009
0.199991
0.200009
0.199988
0.200015
0.199992
0.200004
0.199947
0.200048
0.200172
0.200075
0.199089
0.198872
0.202669
0.208694
0.199803
0.171024
0.187557
0.344405
0.507429
0.355077
-0.107701
-0.603223
-0.885484
-0.846846
-0.511061
-0.0187964
0.40535
0.57002
0.40535
-0.0187964
-0.511061
-0.846846
-0.885484
-0.603223
-0.107701
0.355077
0.507429
0.344405
0.187557
0.171024
0.199803
0.208694
0.202669
0.198872
0.199089
0.200075
0.200171
0.200046
0.199946
0.200005
0.199996
0.200018
0.199988
0.20001
0.199991
0.200007
0.199988
0.200004
0.19999
0.200005
0.199991
0.200003
0.199989
0.200004
0.199994
0.200006
0.199994
0.200012
0.199997
0.199996
0.199983
0.200065
0.200069
0.199777
0.199413
0.200553
0.203278
0.202037
0.189509
0.175719
0.200943
0.318632
0.521274
0.696503
0.713373
0.490516
0.063205
-0.403749
-0.713151
-0.743281
-0.484655
-0.045801
0.369835
0.569136
0.470835
0.133445
-0.267742
-0.526859
-0.517551
-0.249716
0.0863668
0.244741
0.223776
0.184377
0.188549
0.202317
0.203321
0.199831
0.199183
0.199994
0.200185
0.200023
0.199949
0.2
0.200003
0.200008
0.199992
0.200006
0.199994
0.200006
0.199993
0.200007
0.199993
0.2
0.2
0.2
0.2
0.2
0.2
0.199999
0.200001
0.200004
0.200001
0.199977
0.199985
0.200098
0.200144
0.199639
0.199008
0.200758
0.205685
0.204153
0.183693
0.172824
0.262581
0.474013
0.599068
0.415423
-0.0227354
-0.473453
-0.724777
-0.683419
-0.370667
0.0827167
0.471382
0.621823
0.471382
0.0827167
-0.370667
-0.683419
-0.724777
-0.473453
-0.0227355
0.415423
0.599068
0.474013
0.262581
0.172824
0.183693
0.204153
0.205685
0.200758
0.199008
0.199639
0.200145
0.2001
0.199986
0.199976
0.199997
0.200002
0.2
0.199999
0.2
0.200003
0.200004
0.200004
0.200002
0.200002
0.200002
0.200004
0.200004
0.200003
0.199999
0.199999
0.2
0.200001
0.199994
0.199984
0.200009
0.20008
0.199985
0.199599
0.199823
0.201947
0.202676
0.193747
0.182384
0.213399
0.322438
0.474447
0.61489
0.713376
0.716046
0.565543
0.269414
-0.0731393
-0.314741
-0.341559
-0.133907
0.210762
0.510883
0.596465
0.393505
-0.0395169
-0.519034
-0.829025
-0.832527
-0.517548
-0.0444994
0.283556
0.311033
0.214809
0.18156
0.197747
0.204952
0.200953
0.198933
0.199729
0.200236
0.200073
0.199952
0.199979
0.200011
0.200004
0.199999
0.199998
0.200001
0.2
0.2
0.2
0.2
0.200006
0.199994
0.200005
0.199995
0.200005
0.199995
0.200004
0.199997
0.20001
0.199989
0.19998
0.200015
0.200143
0.199959
0.199324
0.199705
0.20318
0.20443
0.190722
0.171138
0.215983
0.395757
0.626292
0.712891
0.554784
0.223521
-0.114709
-0.307536
-0.276684
-0.0355647
0.310936
0.605467
0.719089
0.605467
0.310936
-0.0355647
-0.276684
-0.307536
-0.114709
0.223521
0.554784
0.712892
0.626292
0.395757
0.215983
0.171138
0.190722
0.20443
0.20318
0.199705
0.199323
0.199958
0.20014
0.200014
0.199982
0.199992
0.200012
0.199997
0.200004
0.199995
0.200003
0.199991
0.200002
0.199992
0.200004
0.199992
0.200003
0.199989
0.200005
0.199992
0.200009
0.199991
0.200017
0.199985
0.200004
0.200006
0.20009
0.199854
0.199634
0.200431
0.20249
0.199008
0.186592
0.192372
0.275469
0.40375
0.446088
0.442613
0.490513
0.565542
0.581566
0.489276
0.321289
0.173237
0.145226
0.273612
0.495602
0.67381
0.671945
0.423126
-0.0242697
-0.503267
-0.813858
-0.829025
-0.526861
-0.0311668
0.371903
0.434797
0.26754
0.177062
0.190751
0.205676
0.202642
0.198832
0.199428
0.200191
0.200171
0.19994
0.199983
0.199993
0.20002
0.199988
0.200008
0.199991
0.200008
0.199993
0.200007
0.199994
0.200007
0.199994
0.200006
0.199994
0.200006
0.199994
0.200005
0.199997
0.200008
0.199983
0.199985
0.200051
0.200126
0.199746
0.199288
0.200951
0.204233
0.198312
0.180428
0.199381
0.325121
0.531214
0.696854
0.740117
0.65014
0.474468
0.29459
0.189473
0.20494
0.334843
0.520998
0.678747
0.739631
0.678747
0.520998
0.334843
0.204939
0.189473
0.29459
0.474468
0.650139
0.740117
0.696854
0.531214
0.325121
0.199381
0.180427
0.198312
0.204232
0.200951
0.199288
0.199747
0.200127
0.200052
0.199983
0.199981
0.200005
0.199998
0.200003
0.199995
0.200007
0.2
0.200008
0.199998
0.200007
0.199997
0.200009
0.199998
0.200009
0.199993
0.200006
0.199994
0.200008
0.19998
0.199999
0.200024
0.200067
0.199797
0.199751
0.200941
0.201705
0.195255
0.188827
0.218824
0.287568
0.27703
0.121326
0.000295678
0.0632079
0.269414
0.489277
0.615168
0.619891
0.554411
0.506569
0.539211
0.643208
0.736917
0.716087
0.51425
0.153786
-0.240804
-0.503266
-0.519034
-0.26774
0.146973
0.489657
0.523461
0.312497
0.179029
0.183665
0.205325
0.204429
0.199105
0.19908
0.200098
0.20024
0.19996
0.199974
0.199985
0.200024
0.199987
0.200009
0.19999
0.20001
0.199992
0.200008
0.199993
0.199994
0.200007
0.199993
0.200008
0.199991
0.20001
0.199988
0.200016
0.199987
0.200004
0.199967
0.200101
0.200039
0.199644
0.199473
0.202125
0.203246
0.1911
0.182381
0.266191
0.450839
0.567476
0.581691
0.571585
0.568695
0.570141
0.570471
0.569741
0.569239
0.569816
0.570086
0.569577
0.569075
0.569577
0.570086
0.569816
0.569239
0.569742
0.57047
0.570141
0.568695
0.571585
0.581691
0.567477
0.450839
0.266191
0.18238
0.191101
0.203245
0.202125
0.199472
0.199644
0.200036
0.200101
0.199968
0.200008
0.199988
0.200018
0.199987
0.200012
0.199986
0.200007
0.199987
0.200007
0.199989
0.200007
0.199987
0.200006
0.199988
0.20001
0.199989
0.200013
0.199992
0.200008
0.199976
0.200062
0.200012
0.199804
0.199818
0.201242
0.200473
0.193511
0.197833
0.244579
0.242302
0.0153422
-0.329151
-0.510862
-0.403754
-0.0731369
0.321287
0.619893
0.741638
0.706814
0.602778
0.529121
0.537689
0.602303
0.642042
0.578918
0.394299
0.153788
-0.0242724
-0.0395146
0.13344
0.416286
0.633875
0.608395
0.376667
0.199629
0.178692
0.20312
0.205809
0.19985
0.198792
0.199972
0.200251
0.200017
0.199948
0.199996
0.200008
0.200004
0.199995
0.200003
0.199996
0.200004
0.199995
0.200005
0.199986
0.200015
0.199985
0.200016
0.199982
0.200019
0.199979
0.200026
0.199975
0.200016
0.199959
0.20012
0.199975
0.199636
0.199743
0.202568
0.201442
0.186963
0.188627
0.295859
0.440762
0.391602
0.235125
0.179538
0.270392
0.449188
0.627953
0.730767
0.715805
0.589253
0.403714
0.242495
0.179075
0.242495
0.403714
0.589253
0.715805
0.730767
0.627953
0.449188
0.270392
0.179539
0.235125
0.391602
0.440761
0.29586
0.188627
0.186963
0.201441
0.202569
0.199743
0.199638
0.199976
0.200122
0.199957
0.200013
0.199971
0.200027
0.199977
0.20002
0.199983
0.200022
0.199986
0.200019
0.199985
0.200018