# vtk DataFile Version 3.0
PFC simulation results
ASCII
DATASET STRUCTURED_POINTS
DIMENSIONS 128 128 1
ORIGIN 0 0 0
SPACING 1 1 1
POINT_DATA 16384
SCALARS psi double
LOOKUP_TABLE default
0.193756
0.463108
0.497673
0.270807
-0.122208
-0.494483
-0.668041
-0.565234
-0.233497
0.16622
0.432758
0.43696
0.178739
-0.213141
-0.537874
-0.63465
-0.457814
-0.0893659
0.289698
0.493292
0.427371
0.120734
-0.283355
-0.58966
-0.657348
-0.457312
-0.0785533
0.298031
0.491609
0.414731
0.102555
-0.295514
-0.581446
-0.617814
-0.388486
-0.00527666
0.334392
0.455464
0.29611
-0.0683029
-0.453901
-0.666034
-0.60102
-0.280353
0.152871
0.49564
0.598789
0.425288
0.0541938
-0.333971
-0.543371
-0.477203
-0.183431
0.169226
0.382272
0.341117
0.0689067
-0.286476
-0.532155
-0.542931
-0.318855
0.0265269
0.335278
0.508778
0.555271
0.543747
0.525903
0.491731
0.384088
0.158446
-0.157408
-0.459149
-0.627386
-0.591629
-0.3556
-0.00325513
0.329935
0.534783
0.585012
0.526442
0.434976
0.376652
0.379673
0.427739
0.476961
0.485086
0.433415
0.329175
0.193495
0.0474675
-0.0937619
-0.21488
-0.289506
-0.281024
-0.165279
0.0374487
0.253522
0.387039
0.366634
0.180639
-0.104104
-0.360705
-0.46775
-0.370572
-0.103051
0.223771
0.478895
0.589227
0.566628
0.478884
0.405518
0.395025
0.43797
0.477188
0.455155
0.366467
0.269045
0.240218
0.315215
0.455298
0.565864
0.547931
0.350659
0.0138742
-0.327311
-0.513832
-0.455366
-0.174512
0.345624
0.533438
0.529677
0.308254
-0.0524959
-0.388765
-0.539425
-0.433753
-0.120681
0.245268
0.477916
0.46024
0.194241
-0.195839
-0.515287
-0.607991
-0.431287
-0.0685788
0.300838
0.495296
0.425077
0.121772
-0.271264
-0.562389
-0.616539
-0.410836
-0.0386163
0.321405
0.496947
0.409671
0.100942
-0.278902
-0.537935
-0.548807
-0.30562
0.0741566
0.39901
0.508127
0.349162
-0.00470415
-0.379433
-0.588842
-0.532703
-0.23249
0.174502
0.497091
0.59632
0.437983
0.0949252
-0.265457
-0.457771
-0.387322
-0.0996041
0.242419
0.448732
0.409217
0.142362
-0.21349
-0.469966
-0.497697
-0.288913
0.0493688
0.36141
0.544697
0.59901
0.585129
0.55262
0.497919
0.375634
0.15197
-0.141324
-0.405457
-0.533
-0.467017
-0.224951
0.099585
0.371863
0.489985
0.435994
0.271984
0.101318
0.015214
0.051435
0.184669
0.346816
0.468657
0.517177
0.499969
0.442558
0.365078
0.274781
0.176065
0.0869206
0.0428989
0.0774531
0.189821
0.328807
0.410216
0.356418
0.139545
-0.184685
-0.487326
-0.635148
-0.558064
-0.2769
0.0941231
0.39595
0.518069
0.450393
0.270664
0.101216
0.0448196
0.128821
0.297304
0.45477
0.533922
0.535932
0.51184
0.512211
0.549084
0.588803
0.571377
0.447154
0.221796
-0.0222741
-0.165986
-0.129526
0.0760021
0.495125
0.59501
0.577031
0.41486
0.15359
-0.0930152
-0.201633
-0.11383
0.129584
0.404898
0.57087
0.540838
0.31612
-0.00744797
-0.273009
-0.34845
-0.197501
0.104379
0.405288
0.559648
0.498914
0.250375
-0.0701346
-0.305168
-0.340613
-0.160699
0.147648
0.434098
0.564711
0.483917
0.229367
-0.0764809
-0.277316
-0.269289
-0.0546105
0.260318
0.519695
0.603179
0.475331
0.192568
-0.111342
-0.286309
-0.247302
-0.0139231
0.299368
0.54349
0.615026
0.490355
0.225907
-0.0496623
-0.190054
-0.118574
0.124588
0.404382
0.570815
0.539731
0.324858
0.0329165
-0.183986
-0.215784
-0.0563878
0.199485
0.420691
0.528232
0.533164
0.498627
0.47374
0.453724
0.391525
0.249034
0.0457267
-0.139322
-0.216097
-0.138864
0.0666504
0.307456
0.463552
0.449231
0.25742
-0.0307086
-0.282822
-0.387906
-0.306612
-0.0782052
0.200001
0.42499
0.546422
0.578071
0.563953
0.539528
0.513631
0.476622
0.424069
0.373272
0.355269
0.387521
0.45063
0.488208
0.431025
0.237865
-0.0616669
-0.361076
-0.531642
-0.492175
-0.249256
0.0911856
0.365923
0.44711
0.30733
0.0281796
-0.236468
-0.34368
-0.237785
0.030235
0.334577
0.550335
0.626086
0.590888
0.513252
0.45784
0.452761
0.476233
0.476
0.415864
0.314548
0.237584
0.246489
0.350309
0.522644
0.551014
0.551757
0.494117
0.379843
0.258274
0.200343
0.247825
0.382019
0.533658
0.623581
0.600859
0.461351
0.257543
0.0861635
0.0363376
0.134439
0.328299
0.518345
0.614904
0.577435
0.422439
0.220532
0.0720867
0.0535388
0.173537
0.369547
0.544218
0.618613
0.5633
0.402957
0.21269
0.0906813
0.103388
0.245202
0.442915
0.600687
0.651433
0.577421
0.409996
0.225007
0.113406
0.129912
0.26095
0.43465
0.565633
0.599555
0.52593
0.376428
0.223542
0.153339
0.211728
0.370167
0.542544
0.639765
0.615904
0.482523
0.305024
0.17656
0.163498
0.259596
0.388837
0.460204
0.43563
0.35366
0.290788
0.296888
0.356888
0.407064
0.391058
0.307575
0.212055
0.176254
0.239163
0.379191
0.519417
0.562545
0.437566
0.143602
-0.226023
-0.521858
-0.626032
-0.505156
-0.213395
0.126936
0.386081
0.502936
0.504592
0.465842
0.452997
0.486336
0.539749
0.57288
0.567608
0.539405
0.51901
0.523301
0.535775
0.509108
0.39473
0.187987
-0.0471294
-0.205651
-0.203754
-0.0320304
0.224963
0.424021
0.441364
0.237445
-0.113795
-0.448167
-0.603278
-0.505449
-0.195209
0.188319
0.478478
0.579533
0.501265
0.330196
0.182037
0.143015
0.225209
0.368755
0.489742
0.540296
0.531651
0.506989
0.501517
0.359293
0.336582
0.38343
0.457286
0.508408
0.517815
0.503009
0.491713
0.497913
0.51881
0.541867
0.549345
0.524776
0.468871
0.409231
0.383088
0.406975
0.465448
0.526505
0.563366
0.562401
0.522578
0.460228
0.40856
0.397752
0.432087
0.488822
0.537796
0.559622
0.547729
0.505305
0.449726
0.411049
0.412359
0.450786
0.502032
0.542
0.559849
0.552971
0.522235
0.478699
0.444414
0.435688
0.448205
0.464061
0.471087
0.469374
0.461166
0.446067
0.430754
0.432453
0.462264
0.508568
0.544386
0.549917
0.524008
0.480435
0.442514
0.435224
0.466964
0.511197
0.511328
0.419931
0.247563
0.0718995
-0.0108721
0.0473243
0.21277
0.393076
0.503768
0.522143
0.486967
0.460516
0.485961
0.559655
0.62928
0.617394
0.459724
0.151997
-0.217375
-0.501711
-0.585764
-0.442944
-0.141221
0.180707
0.383096
0.406688
0.297714
0.168672
0.125298
0.204615
0.362482
0.512446
0.586787
0.574593
0.515582
0.466147
0.459446
0.48094
0.480303
0.416355
0.299723
0.194232
0.17315
0.263538
0.417557
0.532044
0.502843
0.281464
-0.0808482
-0.43631
-0.622762
-0.55491
-0.260389
0.123618
0.413584
0.486681
0.336391
0.0627798
-0.176358
-0.249566
-0.119062
0.149232
0.427406
0.604034
0.641472
0.569557
0.452262
0.0342929
-0.0244177
0.0796634
0.287592
0.495215
0.617061
0.624673
0.539131
0.411982
0.308611
0.280737
0.338169
0.444027
0.540711
0.586779
0.571939
0.508181
0.422714
0.354918
0.340747
0.389495
0.475152
0.553681
0.590923
0.574375
0.509476
0.419716
0.345696
0.326691
0.37409
0.461571
0.542808
0.580085
0.557375
0.479801
0.376458
0.296879
0.28595
0.353335
0.46483
0.564236
0.606108
0.570815
0.465021
0.325668
0.214315
0.185769
0.252868
0.378048
0.498727
0.564817
0.555976
0.478715
0.364672
0.26462
0.225735
0.26739
0.373438
0.501503
0.600164
0.619721
0.518868
0.290218
-0.00512681
-0.24834
-0.329033
-0.207966
0.0596607
0.350405
0.549506
0.616417
0.584115
0.520565
0.488897
0.514169
0.568114
0.582739
0.488925
0.267435
-0.016229
-0.237038
-0.28936
-0.150207
0.106877
0.343013
0.426665
0.308407
0.0528833
-0.192452
-0.286914
-0.179091
0.0721732
0.335707
0.488712
0.487203
0.37714
0.257145
0.216786
0.281225
0.401782
0.499461
0.527025
0.499465
0.471628
0.488779
0.549448
0.601553
0.569004
0.396716
0.10151
-0.20977
-0.394981
-0.363153
-0.126791
0.192772
0.422405
0.43474
0.211294
-0.145251
-0.455004
-0.562369
-0.413832
-0.0737331
0.302729
0.553853
0.600348
0.461719
0.23047
-0.321839
-0.404596
-0.253708
0.0597295
0.387574
0.586743
0.590891
0.420249
0.165259
-0.0454655
-0.106967
0.00888431
0.242057
0.477383
0.60933
0.589133
0.431194
0.207136
0.0242734
-0.026421
0.0804262
0.290809
0.500058
0.610949
0.576345
0.408937
0.180177
-0.00179261
-0.0467021
0.0681962
0.284841
0.494267
0.59639
0.543745
0.353317
0.106297
-0.079715
-0.112129
0.0269605
0.270611
0.50011
0.60881
0.547469
0.335529
0.0614543
-0.146991
-0.190104
-0.0492709
0.204073
0.445005
0.563948
0.514456
0.319859
0.0649815
-0.134996
-0.190798
-0.0782786
0.155371
0.411556
0.585795
0.606568
0.44477
0.128415
-0.236781
-0.5024
-0.557507
-0.378046
-0.0383483
0.314019
0.54155
0.591904
0.499853
0.351966
0.245167
0.239375
0.326345
0.436325
0.481324
0.414913
0.26986
0.140339
0.117234
0.225515
0.403578
0.532833
0.500563
0.264848
-0.101981
-0.433311
-0.569344
-0.45109
-0.145045
0.187611
0.380164
0.358386
0.172146
-0.0407945
-0.137453
-0.0537026
0.167594
0.413299
0.577558
0.625033
0.591627
0.541836
0.523899
0.540786
0.54774
0.483815
0.325735
0.12437
-0.0174963
-0.0142617
0.140765
0.3598
0.504507
0.46155
0.202516
-0.184831
-0.525728
-0.659901
-0.524455
-0.176478
0.221608
0.482926
0.500874
0.286368
-0.0451661
-0.546984
-0.642729
-0.470027
-0.104087
0.283563
0.512907
0.491425
0.241172
-0.113772
-0.397524
-0.474072
-0.308774
0.0215224
0.358647
0.546256
0.507096
0.262844
-0.0731577
-0.338711
-0.407097
-0.246959
0.065748
0.378368
0.541923
0.483407
0.226917
-0.11134
-0.369047
-0.423557
-0.249116
0.0724186
0.383724
0.534896
0.455547
0.176065
-0.177778
-0.4372
-0.480791
-0.28801
0.0534026
0.380006
0.537857
0.456058
0.167091
-0.198606
-0.466264
-0.511283
-0.315064
0.0294089
0.35491
0.509196
0.427615
0.147254
-0.20647
-0.473155
-0.539561
-0.381189
-0.0625574
0.283462
0.516538
0.550775
0.368298
0.0236402
-0.350821
-0.596975
-0.613659
-0.393598
-0.026987
0.326295
0.521591
0.502769
0.309123
0.0510323
-0.137175
-0.164388
-0.0241865
0.207654
0.415348
0.514921
0.504239
0.450394
0.434019
0.492465
0.593101
0.649083
0.565986
0.300653
-0.085381
-0.432501
-0.580039
-0.465144
-0.154664
0.180525
0.356245
0.282585
0.0101001
-0.29794
-0.461533
-0.387867
-0.109663
0.238917
0.501633
0.594538
0.534826
0.40686
0.309827
0.302823
0.372535
0.449995
0.46786
0.415811
0.347511
0.334019
0.404799
0.520617
0.59339
0.534079
0.304343
-0.0405063
-0.358223
-0.500575
-0.398367
-0.0973076
0.251713
0.467423
0.437122
0.164505
-0.227155
-0.540432
-0.638605
-0.470929
-0.111189
0.267458
0.478832
0.423184
0.123833
-0.279063
-0.589955
-0.66507
-0.471764
-0.0952835
0.285988
0.490561
0.427954
0.127648
-0.269448
-0.571359
-0.638915
-0.443288
-0.0727165
0.294697
0.481734
0.403
0.0932605
-0.302029
-0.591615
-0.641948
-0.430477
-0.0514252
0.313596
0.489353
0.395555
0.0724354
-0.329624
-0.618093
-0.662521
-0.443941
-0.0585314
0.311291
0.490594
0.400192
0.0810362
-0.316431
-0.599287
-0.63725
-0.415079
-0.0347427
0.321231
0.48628
0.391272
0.0804281
-0.304923
-0.589356
-0.654824
-0.480111
-0.136516
0.233503
0.482121
0.525343
0.356206
0.0399871
-0.290922
-0.489724
-0.469972
-0.238754
0.104517
0.404532
0.528073
0.42229
0.128575
-0.225031
-0.477925
-0.521449
-0.340587
-0.0132497
0.320559
0.538225
0.60532
0.571947
0.521825
0.518489
0.56789
0.614007
0.571957
0.386144
0.0886069
-0.194436
-0.319092
-0.219947
0.0463827
0.323861
0.442247
0.312921
-0.0204098
-0.392754
-0.610821
-0.566167
-0.28071
0.105112
0.40418
0.494966
0.377061
0.152268
-0.0330662
-0.0692859
0.0587785
0.27478
0.466809
0.563011
0.568812
0.540653
0.533266
0.561902
0.593774
0.567364
0.433828
0.205613
-0.0279632
-0.149291
-0.0888889
0.126773
0.379693
0.522044
0.453706
0.169716
-0.221604
-0.303277
-0.391255
-0.252943
0.047066
0.357061
0.516433
0.437387
0.139733
-0.247196
-0.539695
-0.602281
-0.407152
-0.041749
0.319179
0.502401
0.42384
0.115991
-0.279
-0.570742
-0.624785
-0.41833
-0.0447412
0.317078
0.494402
0.407762
0.0960969
-0.293699
-0.57229
-0.610585
-0.391497
-0.0131986
0.344585
0.514328
0.423043
0.112432
-0.272346
-0.546277
-0.584025
-0.369904
-0.000436019
0.349387
0.51732
0.433297
0.138222
-0.227509
-0.484549
-0.511555
-0.297668
0.0565654
0.381571
0.52975
0.443688
0.16557
-0.17805
-0.429921
-0.483488
-0.323023
-0.0192296
0.299389
0.509318
0.54751
0.416498
0.174346
-0.0726937
-0.208979
-0.168131
0.0349316
0.308225
0.522513
0.570386
0.404488
0.0595314
-0.337594
-0.620777
-0.676205
-0.483935
-0.120413
0.261459
0.513197
0.576669
0.493346
0.362169
0.284275
0.307611
0.401039
0.477351
0.454868
0.322703
0.158849
0.0772325
0.144483
0.329837
0.518327
0.576862
0.42704
0.0946736
-0.281013
-0.518519
-0.504265
-0.25034
0.107838
0.377824
0.422292
0.227955
-0.0937321
-0.363703
-0.438003
-0.279891
0.0342685
0.358545
0.565285
0.615806
0.555256
0.465303
0.416509
0.431312
0.474435
0.483149
0.421605
0.317112
0.243099
0.261956
0.375464
0.517755
0.592064
0.521037
0.288208
-0.0337063
0.0631403
-0.000979996
0.087351
0.286573
0.490691
0.587183
0.511082
0.27233
-0.0347941
-0.266615
-0.310508
-0.144181
0.153604
0.437504
0.572238
0.495052
0.233753
-0.0959493
-0.335651
-0.370385
-0.184332
0.134173
0.431652
0.570712
0.492846
0.232468
-0.0905535
-0.319051
-0.342882
-0.151133
0.165337
0.455832
0.59058
0.517669
0.271749
-0.0343129
-0.25284
-0.279334
-0.102784
0.191563
0.462821
0.590201
0.525886
0.302803
0.0258681
-0.168274
-0.184
-0.0156739
0.252349
0.491176
0.598316
0.538865
0.3453
0.105702
-0.0695464
-0.104011
0.00947869
0.212875
0.415934
0.544099
0.566799
0.491386
0.353095
0.213232
0.141282
0.179091
0.315572
0.489103
0.614748
0.616633
0.450604
0.132796
-0.235773
-0.50639
-0.567052
-0.392701
-0.0565242
0.289121
0.491106
0.480317
0.294042
0.0509942
-0.108602
-0.100078
0.0643184
0.288958
0.455646
0.502686
0.459183
0.409147
0.424151
0.513598
0.619382
0.652104
0.542524
0.289799
-0.0133784
-0.22106
-0.226404
-0.0301064
0.252257
0.449835
0.432572
0.178398
-0.206665
-0.534767
-0.647209
-0.493274
-0.142378
0.24338
0.497241
0.54425
0.419473
0.230522
0.100754
0.103728
0.227145
0.391238
0.508317
0.542504
0.521724
0.50005
0.512569
0.554278
0.585541
0.554401
0.430146
0.238266
0.402117
0.367904
0.393314
0.472447
0.561239
0.604604
0.562477
0.429626
0.251453
0.112555
0.0877241
0.193819
0.378277
0.549109
0.625574
0.570929
0.401263
0.187596
0.0330095
0.0165517
0.147005
0.358553
0.548345
0.632754
0.579687
0.41201
0.204287
0.0577803
0.0464601
0.174771
0.376755
0.555256
0.635574
0.592021
0.446534
0.264247
0.133438
0.11962
0.227489
0.399603
0.551767
0.620282
0.584389
0.463914
0.314404
0.209875
0.203502
0.294986
0.432715
0.549006
0.599568
0.57557
0.494722
0.39448
0.321321
0.306256
0.345705
0.408013
0.459956
0.488715
0.499138
0.495655
0.476871
0.44803
0.427671
0.436019
0.479491
0.544779
0.600676
0.60239
0.504452
0.29432
0.0279075
-0.18369
-0.23937
-0.107468
0.150757
0.401364
0.506472
0.39572
0.101824
-0.242777
-0.471312
-0.477136
-0.259097
0.0830987
0.397679
0.573432
0.597901
0.535671
0.472816
0.467147
0.519011
0.575706
0.567698
0.460008
0.289914
0.153456
0.139539
0.263413
0.448416
0.567259
0.511703
0.25074
-0.134165
-0.47371
-0.610512
-0.484013
-0.154197
0.217029
0.449253
0.446583
0.234648
-0.059488
-0.270905
-0.287775
-0.103601
0.190192
0.458884
0.606434
0.619655
0.547537
0.459991
0.413644
0.425565
0.466827
0.487235
0.458842
0.596795
0.584033
0.538153
0.494338
0.475044
0.483406
0.501289
0.501827
0.474547
0.438502
0.424936
0.448197
0.495856
0.542318
0.565825
0.553494
0.503009
0.431462
0.37568
0.369364
0.41667
0.48995
0.552047
0.578976
0.563847
0.512195
0.444555
0.39484
0.390414
0.43055
0.488092
0.532865
0.551196
0.543782
0.51564
0.477278
0.448076
0.444946
0.466153
0.492781
0.508075
0.510893
0.508528
0.504056
0.497333
0.492247
0.492674
0.492737
0.481428
0.459999
0.44704
0.460945
0.500823
0.547568
0.578914
0.577411
0.53038
0.439623
0.336389
0.273315
0.288958
0.376238
0.485131
0.558718
0.568335
0.521953
0.454915
0.412172
0.420219
0.463023
0.486796
0.440942
0.32703
0.208082
0.16517
0.23866
0.394871
0.536989
0.554
0.377216
0.0280664
-0.365118
-0.630045
-0.651708
-0.419611
-0.031238
0.343304
0.559057
0.573809
0.442748
0.274827
0.178058
0.203918
0.324657
0.457981
0.525152
0.506281
0.448763
0.423871
0.470035
0.563185
0.629262
0.585268
0.388722
0.0819591
-0.208111
-0.342064
-0.253301
0.0122233
0.310275
0.473744
0.403415
0.114742
-0.260368
-0.536578
-0.581893
-0.375756
-0.0100879
0.350075
0.559886
0.570225
0.426382
0.232146
0.102358
0.105393
0.230679
0.404019
0.540287
0.631045
0.618321
0.490112
0.323735
0.206433
0.195244
0.28837
0.430854
0.552144
0.607758
0.590763
0.518488
0.423772
0.349864
0.332731
0.37887
0.460293
0.534503
0.571697
0.562989
0.512739
0.437615
0.369799
0.345008
0.378711
0.453469
0.530869
0.576381
0.572074
0.514998
0.420589
0.328035
0.285538
0.319303
0.413962
0.521924
0.593151
0.597402
0.52824
0.406595
0.2839
0.22224
0.256688
0.371365
0.508192
0.601371
0.607845
0.517363
0.358634
0.200713
0.124601
0.175176
0.331825
0.518239
0.645213
0.651482
0.519801
0.288038
0.0517392
-0.0764969
-0.0330141
0.157297
0.39206
0.552304
0.568716
0.446199
0.256561
0.106909
0.0803111
0.185568
0.354356
0.489803
0.535849
0.509458
0.473122
0.48164
0.541974
0.604653
0.587686
0.421875
0.106666
-0.257444
-0.514778
-0.549398
-0.34238
0.015364
0.355086
0.523639
0.463637
0.226387
-0.055066
-0.230959
-0.214792
-0.0202415
0.25338
0.479647
0.583101
0.572567
0.512861
0.474633
0.491729
0.542098
0.562725
0.493912
0.331494
0.146821
0.0455504
0.0942139
0.270708
0.469047
0.556363
0.441791
0.126224
-0.275049
-0.58153
-0.654808
-0.463238
-0.0921466
0.283711
0.493523
0.462796
0.232386
-0.0662359
-0.271995
-0.279382
-0.0855628
0.216278
0.488998
0.568577
0.529612
0.311262
0.0308428
-0.168445
-0.188936
-0.0231076
0.247624
0.496489
0.621177
0.584278
0.411267
0.181074
0.00172015
-0.0413972
0.0707291
0.281904
0.490524
0.605062
0.581933
0.430801
0.213216
0.0274651
-0.037553
0.0503728
0.249433
0.463782
0.594888
0.585916
0.435077
0.199255
-0.0171322
-0.110716
-0.0349831
0.175247
0.41876
0.581257
0.590712
0.438277
0.182623
-0.0616867
-0.177307
-0.107402
0.115607
0.383137
0.566461
0.580799
0.412956
0.127842
-0.145089
-0.273412
-0.193181
0.0599411
0.363889
0.571587
0.584363
0.385062
0.0481822
-0.274871
-0.430076
-0.344462
-0.0612493
0.275021
0.494887
0.497917
0.29161
-0.0150495
-0.259223
-0.313685
-0.152174
0.14409
0.433706
0.604677
0.635202
0.578863
0.514081
0.496132
0.524504
0.541763
0.47158
0.280902
0.0243048
-0.178017
-0.217805
-0.0661441
0.203109
0.444274
0.519088
0.366524
0.0338584
-0.331747
-0.558577
-0.545685
-0.300697
0.0660527
0.390759
0.552191
0.531451
0.397593
0.260314
0.210904
0.272687
0.393872
0.488446
0.500347
0.443936
0.387092
0.394618
0.478152
0.58462
0.624904
0.520382
0.252234
-0.101146
-0.388642
-0.476781
-0.323804
-0.00316485
0.32108
0.480657
0.391421
0.0871869
-0.288211
-0.549507
-0.572925
-0.346498
0.0297716
0.384242
0.499106
0.416095
0.119295
-0.244667
-0.496819
-0.519875
-0.303495
0.055294
0.390052
0.553539
0.485578
0.22235
-0.115196
-0.368232
-0.421057
-0.251101
0.0641339
0.377026
0.546081
0.501779
0.262474
-0.0690493
-0.34079
-0.42859
-0.293154
0.00586761
0.32939
0.527344
0.512486
0.286801
-0.0562887
-0.360435
-0.485737
-0.376151
-0.0791158
0.267515
0.500118
0.51378
0.299281
-0.052888
-0.379719
-0.528493
-0.432342
-0.13321
0.229054
0.480535
0.504845
0.287366
-0.079096
-0.422932
-0.582202
-0.485539
-0.175594
0.201746
0.462838
0.484077
0.251514
-0.132388
-0.482703
-0.629615
-0.50415
-0.163582
0.22448
0.464876
0.442747
0.17002
-0.218795
-0.526149
-0.601786
-0.410907
-0.0404529
0.33808
0.568565
0.598795
0.48128
0.3258
0.239692
0.268351
0.371413
0.455506
0.445595
0.343732
0.226654
0.186941
0.266515
0.424541
0.556592
0.551179
0.347658
-0.0183037
-0.406558
-0.646246
-0.634828
-0.377927
0.0098806
0.347709
0.490364
0.403183
0.163906
-0.0799567
-0.18966
-0.108983
0.115711
0.369098
0.540731
0.592035
0.560858
0.516815
0.512185
0.551343
0.588358
0.55427
0.406027
0.173544
-0.0400402
-0.12104
-0.0199321
0.212505
0.445114
0.536601
0.406067
0.0740752
-0.326608
-0.612096
-0.653685
-0.432518
-0.0464428
0.321168
0.488207
0.364582
0.0274901
-0.369578
-0.638731
-0.660124
-0.424287
-0.0336384
0.329299
0.496985
0.39889
0.0796287
-0.31379
-0.596775
-0.644694
-0.43821
-0.0661397
0.300121
0.492433
0.42879
0.135856
-0.256782
-0.567699
-0.659526
-0.494179
-0.140465
0.241241
0.473855
0.45504
0.191218
-0.202584
-0.543639
-0.678179
-0.549647
-0.211248
0.183866
0.449561
0.466109
0.225691
-0.16506
-0.521891
-0.680077
-0.571751
-0.242473
0.157608
0.43811
0.471406
0.243588
-0.142436
-0.502793
-0.669418
-0.571105
-0.251803
0.139607
0.413697
0.444272
0.222268
-0.142906
-0.466
-0.584365
-0.438456
-0.0931478
0.283224
0.502839
0.457886
0.161865
-0.249951
-0.57657
-0.663864
-0.474237
-0.0956645
0.28897
0.502545
0.474943
0.261312
0.00357955
-0.144519
-0.102207
0.10062
0.349077
0.520871
0.566578
0.524961
0.47572
0.479687
0.540161
0.600416
0.575518
0.402331
0.0931775
-0.242718
-0.455233
-0.445303
-0.215497
0.123835
0.399015
0.467478
0.290128
-0.0498275
-0.380474
-0.536468
-0.445543
-0.150197
0.213812
0.490174
0.595246
0.545995
0.424811
0.328952
0.319187
0.387569
0.467973
0.486302
0.419233
0.315343
0.258155
0.302548
0.433036
0.569382
0.610644
0.485144
0.193358
-0.166058
-0.43492
-0.489075
-0.302789
0.035382
0.353768
0.542247
0.405407
0.0852802
-0.285378
-0.535779
-0.553099
-0.329321
0.035106
0.366432
0.508062
0.394765
0.0716135
-0.315733
-0.586119
-0.620094
-0.404013
-0.0312248
0.327036
0.507942
0.43529
0.139083
-0.250156
-0.552514
-0.634109
-0.461343
-0.106926
0.269
0.495036
0.475677
0.220393
-0.158458
-0.484423
-0.609037
-0.47919
-0.150123
0.22852
0.480999
0.497779
0.273982
-0.0904529
-0.423604
-0.569853
-0.464988
-0.154897
0.21767
0.478647
0.515348
0.317368
-0.0242536
-0.34702
-0.498678
-0.412959
-0.131165
0.212542
0.454801
0.491551
0.319065
0.0296449
-0.224651
-0.309423
-0.177325
0.111094
0.414093
0.58267
0.53241
0.271657
-0.0917247
-0.386533
-0.471652
-0.309105
0.0176881
0.335021
0.472426
0.356706
0.0451527
-0.298755
-0.494006
-0.442383
-0.167215
0.202077
0.502412
0.639519
0.624672
0.5355
0.460516
0.451407
0.495331
0.525023
0.465656
0.29534
0.0770877
-0.0744783
-0.0693274
0.0992833
0.342749
0.518784
0.506309
0.266192
-0.125122
-0.495241
-0.674351
-0.585942
-0.269726
0.130061
0.431787
0.5229
0.406839
0.181784
-0.0113938
-0.0634479
0.0473818
0.253471
0.445227
0.543848
0.546329
0.508227
0.492193
0.525486
0.585723
0.614483
0.549168
0.365797
0.115049
-0.090406
-0.14425
-0.0140876
0.233681
0.463216
0.605172
0.496376
0.254297
-0.0302981
-0.226352
-0.238713
-0.0595604
0.225486
0.476903
0.574891
0.470563
0.199682
-0.120855
-0.340877
-0.358167
-0.165058
0.15036
0.442263
0.582645
0.516016
0.268943
-0.0532752
-0.302421
-0.363969
-0.211037
0.0872263
0.393802
0.573719
0.557077
0.354073
0.0520902
-0.209334
-0.307178
-0.196836
0.0705623
0.369792
0.565508
0.578868
0.408679
0.129322
-0.129141
-0.242825
-0.158698
0.0826269
0.36599
0.562315
0.593875
0.455701
0.211296
-0.0248409
-0.139501
-0.0804302
0.120027
0.362541
0.535251
0.571966
0.472364
0.294598
0.133598
0.0761891
0.154605
0.330572
0.517003
0.623947
0.595604
0.42732
0.179649
-0.0322822
-0.0989427
0.0161106
0.247978
0.456514
0.500584
0.313301
-0.0537205
-0.437719
-0.654954
-0.604623
-0.306192
0.106597
0.448382
0.595568
0.541776
0.371667
0.208622
0.151535
0.222431
0.36015
0.465779
0.474073
0.398867
0.316456
0.305943
0.393073
0.530193
0.620969
0.570833
0.33764
-0.0253028
-0.371792
-0.545245
-0.468941
-0.179367
0.182068
0.43452
0.458827
0.251342
-0.0782603
-0.35775
-0.44755
-0.307874
-0.00537895
0.321965
0.54441
0.613615
0.564823
0.473901
0.413782
0.419295
0.470731
0.509432
0.481627
0.384739
0.276816
0.235069
0.29805
0.436126
0.567735
0.589556
0.548262
0.43127
0.277226
0.162612
0.153028
0.258645
0.426439
0.571645
0.623831
0.553383
0.379739
0.173916
0.0337231
0.02955
0.163941
0.371166
0.554479
0.637739
0.591692
0.434114
0.229054
0.0703712
0.0347425
0.138543
0.329912
0.51831
0.624677
0.613178
0.492407
0.312456
0.155368
0.0979626
0.168088
0.329178
0.502168
0.611303
0.61789
0.524133
0.369576
0.224665
0.1608
0.209152
0.342435
0.492941
0.594301
0.612709
0.548985
0.432247
0.315262
0.254151
0.27647
0.365455
0.473828
0.555387
0.586908
0.567514
0.512035
0.447853
0.404831
0.400014
0.431823
0.485344
0.537722
0.55941
0.523838
0.433399
0.335205
0.296041
0.351892
0.473747
0.574998
0.555213
0.355297
0.00795164
-0.351812
-0.559243
-0.517815
-0.244103
0.132194
0.426887
0.509292
0.36496
0.089309
-0.160904
-0.251255
-0.138388
0.116258
0.384839
0.55437
0.59375
0.550482
0.501169
0.501123
0.553304
0.607434
0.588774
0.444635
0.192788
-0.0661376
-0.204291
-0.148142
0.0758346
0.346729
0.509499
0.456339
0.178359
-0.216741
-0.547775
-0.665117
-0.520872
-0.17728
0.214063
0.489173
0.565373
0.463179
0.274472
0.117166
0.0776583
0.168301
0.329224
0.471382
0.536467
0.529346
0.498273
0.490103
0.519767
0.566704
0.424715
0.478111
0.509991
0.502872
0.475667
0.461253
0.476036
0.511248
0.545931
0.561226
0.54456
0.493522
0.42563
0.376553
0.376254
0.42495
0.493987
0.54915
0.571394
0.557297
0.511523
0.449477
0.400018
0.390446
0.424617
0.479478
0.524897
0.5453
0.541109
0.517133
0.480471
0.446915
0.435945
0.4536
0.485253
0.509756
0.518476
0.516338
0.508489
0.495498
0.481383
0.475615
0.481647
0.489817
0.488795
0.481377
0.481501
0.496081
0.516671
0.529833
0.52868
0.511692
0.479857
0.443799
0.427398
0.45192
0.513099
0.577417
0.602864
0.563867
0.465471
0.347852
0.272573
0.284354
0.375463
0.488413
0.560649
0.572286
0.552241
0.544247
0.567025
0.59493
0.568304
0.431592
0.186409
-0.0812833
-0.243864
-0.214684
-0.00355173
0.27762
0.468893
0.451601
0.209598
-0.155189
-0.46696
-0.576439
-0.433233
-0.0991055
0.277044
0.542043
0.628491
0.56696
0.443965
0.353464
0.349811
0.420204
0.496718
0.503958
0.416357
0.283153
0.195662
0.221856
0.357417
0.522372
0.603249
0.510374
0.22564
-0.164649
-0.496356
-0.62418
-0.495615
-0.167566
0.208598
0.459981
0.487596
0.301406
0.00643983
-0.243094
-0.323836
-0.201504
0.0639211
0.352069
0.550963
0.617278
0.576789
0.488631
0.413957
0.392165
0.10882
0.265022
0.44643
0.57772
0.624056
0.591218
0.506199
0.407493
0.338356
0.329344
0.380644
0.461986
0.53351
0.569258
0.561279
0.511466
0.433113
0.357191
0.321933
0.348085
0.423128
0.509665
0.570056
0.582493
0.539976
0.45121
0.348715
0.281733
0.287448
0.365138
0.47584
0.567531
0.602484
0.565651
0.465164
0.338286
0.244435
0.233411
0.313104
0.443509
0.561385
0.614884
0.580319
0.464958
0.312521
0.194941
0.17503
0.266418
0.42288
0.564973
0.624357
0.571545
0.423925
0.24763
0.135231
0.15214
0.2912
0.471439
0.583664
0.55144
0.371168
0.12327
-0.0607607
-0.0774036
0.0820603
0.327841
0.533649
0.620313
0.592041
0.512308
0.453832
0.450163
0.47447
0.464424
0.380668
0.25123
0.157365
0.171513
0.299374
0.465205
0.549741
0.455018
0.162321
-0.234291
-0.56301
-0.67698
-0.526238
-0.172489
0.22688
0.498815
0.554634
0.416636
0.189051
0.00728505
-0.0306941
0.0877016
0.290749
0.469457
0.549166
0.532215
0.479941
0.460942
0.504866
0.583922
0.628064
0.562264
0.352765
0.048483
-0.225583
-0.341282
-0.242718
0.0234493
0.322428
0.498241
0.45367
0.190064
-0.185064
-0.500075
-0.614558
-0.482891
-0.160712
0.214303
0.489551
0.581921
0.499582
0.315867
0.13664
0.0553122
-0.262249
-0.0216018
0.283482
0.525161
0.620043
0.552706
0.364126
0.139644
-0.0186004
-0.039235
0.0848959
0.29443
0.493638
0.60017
0.575248
0.426157
0.207557
0.0120339
-0.0711219
-0.00216451
0.188899
0.414676
0.575285
0.605235
0.489667
0.267686
0.0307113
-0.11305
-0.0955301
0.0767387
0.323642
0.530726
0.607954
0.521929
0.301899
0.0392146
-0.144977
-0.162982
-0.00500246
0.25499
0.493749
0.603234
0.535136
0.311725
0.0266892
-0.18632
-0.223931
-0.0668649
0.209327
0.468289
0.585432
0.505305
0.259363
-0.0371584
-0.232578
-0.225377
-0.0223963
0.260859
0.459209
0.451383
0.225865
-0.105613
-0.360856
-0.397546
-0.196998
0.128813
0.406166
0.511347
0.43634
0.272983
0.148303
0.146093
0.259329
0.4059
0.497544
0.506649
0.474484
0.465024
0.509836
0.580747
0.602896
0.497386
0.236373
-0.112757
-0.405738
-0.508869
-0.373143
-0.0580729
0.284699
0.487712
0.458919
0.217728
-0.114736
-0.371256
-0.428697
-0.262528
0.0502638
0.368406
0.569267
0.61631
0.554273
0.464873
0.420568
0.44677
0.509209
0.536821
0.471072
0.315483
0.145326
0.060334
0.117649
0.292665
0.48714
0.580127
0.485908
0.19473
-0.201143
-0.537113
-0.671125
-0.551175
-0.226972
0.160354
0.44075
0.508051
0.357238
0.073412
-0.200733
-0.332469
-0.538434
-0.253197
0.123716
0.428757
0.541164
0.42945
0.149159
-0.173165
-0.391554
-0.411676
-0.225656
0.0861769
0.384918
0.542815
0.498088
0.265675
-0.0628911
-0.345541
-0.459107
-0.354983
-0.074874
0.258798
0.497346
0.540244
0.36763
0.0450515
-0.288442
-0.483302
-0.454862
-0.213843
0.134174
0.429192
0.539699
0.417883
0.110731
-0.247407
-0.491731
-0.513273
-0.30179
0.0500889
0.378427
0.531974
0.442711
0.144721
-0.230031
-0.505168
-0.554473
-0.355675
0.0017337
0.345457
0.50901
0.415863
0.106679
-0.269068
-0.521217
-0.526776
-0.288375
0.0654069
0.337181
0.374414
0.156395
-0.193252
-0.472276
-0.523316
-0.323393
0.00743186
0.275378
0.336916
0.184351
-0.0616443
-0.232298
-0.213629
-0.0071954
0.279596
0.510142
0.61075
0.598756
0.544253
0.514375
0.530167
0.554042
0.516362
0.370345
0.142985
-0.0652766
-0.143668
-0.0432232
0.189212
0.427198
0.529976
0.413976
0.0951041
-0.30102
-0.596125
-0.661388
-0.470153
-0.102062
0.281759
0.525088
0.563989
0.436902
0.248371
0.117229
0.115861
0.234971
0.396072
0.505018
0.516084
0.457336
0.400391
0.406086
0.484051
0.585864
0.630753
0.544731
0.302173
-0.0369892
-0.338432
-0.4705
-0.375875
-0.0962877
0.236886
0.46255
0.472751
0.253874
-0.105998
-0.445078
-0.612123
-0.605088
-0.318389
0.0678645
0.378776
0.478477
0.327856
-0.00834802
-0.379726
-0.620152
-0.63041
-0.406191
-0.038227
0.312603
0.494774
0.43575
0.157205
-0.226995
-0.548907
-0.672409
-0.548512
-0.224189
0.162932
0.440237
0.489668
0.289999
-0.078319
-0.452443
-0.66591
-0.630272
-0.358599
0.0344338
0.369482
0.496077
0.360177
0.0176956
-0.377545
-0.643549
-0.66536
-0.433127
-0.0447587
0.320931
0.494974
0.4011
0.0781679
-0.327165
-0.623436
-0.677548
-0.465798
-0.0799073
0.297133
0.483834
0.3949
0.0715227
-0.32879
-0.604867
-0.624872
-0.384211
-0.0070879
0.30562
0.393604
0.228788
-0.076639
-0.33429
-0.393771
-0.231577
0.0375197
0.228759
0.207245
-0.023775
-0.325248
-0.512319
-0.466896
-0.196997
0.169268
0.461151
0.575444
0.521398
0.388831
0.287281
0.282902
0.363134
0.452796
0.473584
0.406024
0.303975
0.25162
0.301022
0.433473
0.565299
0.591773
0.439776
0.114454
-0.275339
-0.563871
-0.627177
-0.43908
-0.0803498
0.283681
0.487972
0.457246
0.229345
-0.0672744
-0.275042
-0.290521
-0.109139
0.180499
0.445909
0.59175
0.607248
0.54706
0.485081
0.473351
0.515574
0.56579
0.554555
0.434091
0.222652
0.00973014
-0.0962648
-0.0358415
0.165162
0.403051
0.547807
0.505129
0.254229
-0.12884
-0.487633
-0.67025
-0.433387
-0.182343
0.155752
0.420673
0.488258
0.321458
-0.0176682
-0.381927
-0.609349
-0.605771
-0.372167
-0.00316809