# vtk DataFile Version 3.0
PFC simulation results
ASCII
DATASET STRUCTURED_POINTS
DIMENSIONS 128 128 1
ORIGIN 0 0 0
SPACING 1 1 1
POINT_DATA 16384
SCALARS psi double
LOOKUP_TABLE default
0.18702
0.461825
0.5042
0.284242
-0.106671
-0.483482
-0.66603
-0.572674
-0.246949
0.15281
0.424464
0.435022
0.180825
-0.211101
-0.539247
-0.640365
-0.466355
-0.0975842
0.284971
0.493473
0.431757
0.126889
-0.278863
-0.589563
-0.662424
-0.46622
-0.0879413
0.292168
0.491618
0.42034
0.111055
-0.288326
-0.579
-0.621033
-0.395603
-0.0123923
0.331461
0.458895
0.305147
-0.0572716
-0.445809
-0.664389
-0.606566
-0.290997
0.14152
0.487808
0.596169
0.427046
0.0577434
-0.3319
-0.544973
-0.482608
-0.191078
0.161113
0.373823
0.330925
0.0566985
-0.29767
-0.537146
-0.537458
-0.30252
0.0485037
0.354314
0.518295
0.554045
0.536279
0.521161
0.499867
0.411108
0.200874
-0.113237
-0.429484
-0.621127
-0.607538
-0.384732
-0.0324305
0.311762
0.530743
0.591156
0.536348
0.44327
0.38078
0.380194
0.427198
0.478167
0.48965
0.440523
0.334732
0.190948
0.0311817
-0.124494
-0.254443
-0.328178
-0.309032
-0.176766
0.0417996
0.266968
0.400867
0.37471
0.181655
-0.10663
-0.360753
-0.460516
-0.355058
-0.0828071
0.24225
0.490389
0.592983
0.565789
0.477969
0.407896
0.401187
0.4454
0.481936
0.454179
0.359352
0.258012
0.22865
0.306047
0.450171
0.565175
0.55139
0.357296
0.0213992
-0.322135
-0.513452
-0.460162
-0.182372
0.34038
0.533171
0.53688
0.322904
-0.0341709
-0.372962
-0.531016
-0.434049
-0.127189
0.237878
0.474971
0.464486
0.205143
-0.181769
-0.502549
-0.599489
-0.427465
-0.0678002
0.301451
0.498417
0.431938
0.131394
-0.261948
-0.556696
-0.616107
-0.414993
-0.0444088
0.317988
0.498691
0.416803
0.110855
-0.270762
-0.535459
-0.553085
-0.314583
0.0649586
0.394073
0.509472
0.355603
0.002906
-0.375517
-0.591685
-0.542336
-0.246108
0.161285
0.487137
0.588714
0.429109
0.0813113
-0.28469
-0.480507
-0.40982
-0.118087
0.229709
0.440022
0.400775
0.132248
-0.223032
-0.473801
-0.491315
-0.27176
0.0721313
0.381375
0.555635
0.600013
0.580682
0.551278
0.50924
0.4051
0.19583
-0.0965755
-0.375483
-0.526029
-0.481166
-0.250848
0.0746697
0.357798
0.48925
0.44495
0.284899
0.113529
0.0247022
0.0585712
0.190701
0.352547
0.474006
0.520979
0.499485
0.43363
0.343955
0.240934
0.133904
0.0449609
0.0106077
0.0611534
0.189583
0.338401
0.420556
0.360005
0.133637
-0.196781
-0.498189
-0.637787
-0.549394
-0.2592
0.113876
0.410399
0.524165
0.450108
0.26893
0.103013
0.0523401
0.140374
0.308501
0.461254
0.533937
0.530834
0.50464
0.505789
0.545186
0.587988
0.573478
0.451429
0.226609
-0.0192354
-0.16656
-0.133973
0.0694518
0.490974
0.594168
0.581935
0.426482
0.169925
-0.0766678
-0.189961
-0.109012
0.128761
0.402433
0.571543
0.548226
0.331316
0.0132709
-0.251481
-0.330517
-0.185442
0.110815
0.408595
0.56329
0.505569
0.26047
-0.0588481
-0.296122
-0.336167
-0.160935
0.14499
0.43246
0.566764
0.490236
0.237917
-0.0697039
-0.275944
-0.274325
-0.0638756
0.251077
0.514297
0.602914
0.478666
0.195887
-0.112037
-0.293036
-0.258973
-0.0269462
0.288924
0.536735
0.608811
0.479112
0.205429
-0.0789507
-0.223062
-0.148407
0.103393
0.393128
0.566039
0.53604
0.318994
0.0260995
-0.187111
-0.210761
-0.0425957
0.217364
0.435111
0.533397
0.527962
0.48726
0.464613
0.456171
0.410787
0.281939
0.0807406
-0.115702
-0.211195
-0.150815
0.0465536
0.289879
0.455638
0.452004
0.26737
-0.0184422
-0.271645
-0.378532
-0.298065
-0.0698157
0.207611
0.430601
0.549206
0.577484
0.558957
0.528446
0.495252
0.451964
0.397368
0.350901
0.342675
0.386015
0.456373
0.494063
0.429884
0.226076
-0.0817617
-0.381859
-0.544686
-0.492641
-0.238135
0.107191
0.378378
0.451094
0.303466
0.0216033
-0.239239
-0.338685
-0.225506
0.0454742
0.347147
0.556778
0.626559
0.587762
0.509178
0.454685
0.451364
0.476656
0.477793
0.418069
0.315814
0.236725
0.243187
0.345522
0.518322
0.547549
0.551461
0.498879
0.389519
0.270147
0.210589
0.253697
0.383226
0.532415
0.623552
0.605755
0.473438
0.276094
0.107351
0.0552674
0.14753
0.334666
0.51996
0.615401
0.580208
0.428976
0.22966
0.0808686
0.059296
0.175394
0.368725
0.543122
0.619387
0.566734
0.407927
0.216491
0.0907013
0.0989917
0.238251
0.436564
0.597304
0.651298
0.578848
0.410165
0.221375
0.105473
0.119988
0.253069
0.431895
0.567465
0.601326
0.521173
0.360735
0.197856
0.123993
0.187014
0.355919
0.539201
0.642744
0.619042
0.481939
0.301226
0.173609
0.165612
0.267607
0.398964
0.465991
0.431515
0.338007
0.267345
0.273967
0.343856
0.409292
0.40639
0.327144
0.225465
0.17772
0.230137
0.366307
0.509877
0.560123
0.441621
0.150708
-0.219443
-0.517221
-0.622229
-0.500336
-0.207145
0.132973
0.389908
0.50441
0.50583
0.469456
0.459638
0.493681
0.544068
0.572106
0.563161
0.535007
0.517752
0.525374
0.537999
0.506307
0.382707
0.166993
-0.0712749
-0.224601
-0.211445
-0.0280445
0.234993
0.431834
0.440997
0.228175
-0.127079
-0.457889
-0.603998
-0.496338
-0.179931
0.203461
0.488425
0.583051
0.499997
0.326667
0.178378
0.140379
0.223839
0.368397
0.489913
0.540355
0.530902
0.504889
0.497968
0.35379
0.329269
0.376479
0.45344
0.509193
0.52236
0.508581
0.495325
0.4978
0.515231
0.537103
0.546896
0.527752
0.478052
0.422252
0.395632
0.415043
0.467228
0.523052
0.557858
0.558463
0.522515
0.463983
0.414085
0.402533
0.434576
0.488918
0.536475
0.558217
0.547222
0.505749
0.450164
0.410348
0.410373
0.448633
0.501144
0.542894
0.561717
0.554176
0.521121
0.474532
0.438318
0.430866
0.448616
0.471816
0.484337
0.482536
0.4676
0.441817
0.417236
0.416062
0.45091
0.507285
0.552672
0.562494
0.534339
0.484531
0.44087
0.431833
0.466047
0.514026
0.515174
0.419329
0.237119
0.0494722
-0.0423464
0.0142622
0.187129
0.380615
0.503601
0.527923
0.491375
0.459593
0.48066
0.553982
0.626789
0.618794
0.462885
0.15365
-0.219237
-0.506234
-0.590033
-0.444415
-0.139866
0.182215
0.381925
0.403272
0.296952
0.177254
0.146755
0.235971
0.39508
0.537014
0.598982
0.576274
0.512214
0.463163
0.459027
0.480744
0.475506
0.403994
0.281897
0.17723
0.163233
0.262751
0.422385
0.535691
0.499228
0.268605
-0.0990999
-0.452246
-0.629868
-0.551087
-0.248355
0.137671
0.423757
0.490608
0.335004
0.0585469
-0.18099
-0.25324
-0.12155
0.147677
0.426516
0.603572
0.641034
0.568347
0.449221
0.0283336
-0.0344178
0.0674131
0.276462
0.488239
0.614968
0.625677
0.540099
0.409843
0.30177
0.270073
0.326886
0.436102
0.538492
0.589472
0.576196
0.510009
0.41939
0.346221
0.328998
0.378347
0.467775
0.551269
0.59248
0.577778
0.512604
0.420993
0.344411
0.323207
0.369637
0.457601
0.540307
0.579461
0.5589
0.483654
0.382128
0.302898
0.290457
0.354951
0.463299
0.560684
0.60304
0.571823
0.473531
0.342657
0.236808
0.207772
0.268256
0.383859
0.497026
0.561702
0.558269
0.490159
0.383625
0.284989
0.240722
0.273361
0.371613
0.496584
0.596867
0.619903
0.520739
0.289192
-0.014141
-0.267901
-0.357561
-0.240009
0.0317141
0.332372
0.541812
0.614951
0.584112
0.519705
0.487884
0.514986
0.571549
0.587201
0.491166
0.264446
-0.0250463
-0.248971
-0.300056
-0.156716
0.103873
0.339435
0.41833
0.295691
0.0430677
-0.188657
-0.26261
-0.136392
0.121464
0.375808
0.50932
0.488142
0.366519
0.246314
0.213929
0.286993
0.410131
0.503035
0.522905
0.490634
0.463761
0.485793
0.550975
0.603389
0.565732
0.38513
0.0834313
-0.227898
-0.406284
-0.364307
-0.119352
0.203425
0.430545
0.437509
0.209074
-0.1501
-0.459874
-0.565893
-0.415975
-0.074955
0.302115
0.5538
0.600709
0.461643
0.22827
-0.325721
-0.413742
-0.267092
0.0454886
0.376612
0.581245
0.590031
0.420936
0.163439
-0.0529204
-0.120542
-0.00819688
0.226134
0.466673
0.604737
0.588311
0.430201
0.202323
0.0140084
-0.0410069
0.0648128
0.278136
0.493027
0.609865
0.579606
0.413902
0.183782
-0.00194481
-0.0512228
0.0607245
0.277244
0.489451
0.596178
0.548669
0.362523
0.117317
-0.0701389
-0.106505
0.0278267
0.26789
0.496533
0.607756
0.552269
0.348422
0.0818569
-0.122963
-0.167884
-0.0333748
0.212265
0.448304
0.568
0.524724
0.338412
0.0886425
-0.113064
-0.176991
-0.0752264
0.149983
0.403464
0.580446
0.606362
0.448664
0.132571
-0.237221
-0.510532
-0.573269
-0.398371
-0.0579094
0.300106
0.534508
0.589549
0.499554
0.352837
0.248111
0.245431
0.334789
0.444141
0.484565
0.410922
0.259081
0.126579
0.10558
0.218875
0.400275
0.527127
0.486428
0.241696
-0.125537
-0.443328
-0.555656
-0.41369
-0.0961514
0.228455
0.397953
0.350833
0.149558
-0.0616333
-0.143054
-0.0409442
0.191117
0.435088
0.588857
0.625214
0.585898
0.53655
0.522749
0.542974
0.548887
0.479291
0.314462
0.110129
-0.0286761
-0.0182156
0.143963
0.366355
0.509796
0.462892
0.199941
-0.189267
-0.529559
-0.661876
-0.524749
-0.175863
0.222588
0.484321
0.502918
0.288467
-0.0449176
-0.546197
-0.647295
-0.4798
-0.116301
0.273354
0.507997
0.492142
0.244898
-0.111598
-0.401124
-0.485125
-0.325628
0.00356257
0.344983
0.539547
0.50622
0.264125
-0.0741639
-0.345042
-0.419025
-0.262066
0.0517426
0.369609
0.540244
0.487965
0.234734
-0.104591
-0.367103
-0.427777
-0.258079
0.0624762
0.377256
0.53485
0.4625
0.188098
-0.164786
-0.427599
-0.47703
-0.290054
0.0479484
0.374975
0.536806
0.461257
0.178914
-0.182432
-0.449877
-0.498592
-0.308193
0.0311744
0.355248
0.512979
0.438416
0.165052
-0.186259
-0.457278
-0.53309
-0.385373
-0.0741069
0.271035
0.509104
0.550958
0.375541
0.034718
-0.34063
-0.591339
-0.613721
-0.398231
-0.033327
0.32137
0.519335
0.502426
0.30975
0.0529779
-0.132452
-0.155816
-0.0127384
0.21849
0.421255
0.513482
0.496544
0.440729
0.427563
0.491716
0.595354
0.647048
0.551715
0.271803
-0.120557
-0.458367
-0.583673
-0.444035
-0.119557
0.209793
0.362776
0.262495
-0.0252656
-0.328291
-0.470113
-0.370037
-0.0740269
0.275429
0.524524
0.599639
0.527297
0.396221
0.304602
0.306084
0.380915
0.456889
0.468506
0.410461
0.340358
0.329471
0.404504
0.523095
0.595834
0.53445
0.302396
-0.0433186
-0.359923
-0.500131
-0.396107
-0.0942689
0.254779
0.470724
0.44142
0.169725
-0.222826
-0.533963
-0.636676
-0.474202
-0.1178
0.261496
0.477333
0.427663
0.132595
-0.270565
-0.586608
-0.669435
-0.483143
-0.109561
0.274648
0.486134
0.430732
0.134631
-0.263202
-0.570121
-0.644243
-0.453755
-0.0842832
0.286978
0.480971
0.409252
0.103597
-0.292623
-0.587632
-0.645162
-0.43957
-0.0622577
0.306251
0.488951
0.402469
0.0839306
-0.318515
-0.611888
-0.663102
-0.450388
-0.0675192
0.304086
0.488141
0.403092
0.0876491
-0.309513
-0.595659
-0.638983
-0.421937
-0.0438541
0.314332
0.485255
0.397357
0.0916076
-0.293756
-0.583857
-0.658355
-0.492601
-0.154004
0.217547
0.47312
0.525522
0.365201
0.0552801
-0.27352
-0.474077
-0.458094
-0.230987
0.109043
0.407266
0.529905
0.423181
0.128581
-0.22466
-0.47503
-0.51436
-0.32964
-0.00154626
0.32862
0.540129
0.602312
0.568535
0.523336
0.52732
0.580675
0.622138
0.565715
0.361084
0.0509069
-0.229726
-0.337432
-0.216286
0.0639674
0.337994
0.436857
0.283123
-0.0640239
-0.42919
-0.622182
-0.54707
-0.239979
0.14811
0.430968
0.498509
0.362627
0.132737
-0.0443472
-0.0656588
0.0748149
0.294363
0.480864
0.567791
0.566391
0.535494
0.528941
0.559752
0.593248
0.567214
0.433338
0.205208
-0.0271803
-0.146671
-0.0848493
0.131163
0.383767
0.526336
0.459551
0.177685
-0.212971
-0.292459
-0.383523
-0.249788
0.0464937
0.355893
0.518477
0.445113
0.152641
-0.233017
-0.529322
-0.598956
-0.411017
-0.0495741
0.312757
0.501866
0.430743
0.128414
-0.265877
-0.561967
-0.622928
-0.422817
-0.0520959
0.311767
0.494805
0.414703
0.107179
-0.283348
-0.567294
-0.612892
-0.399867
-0.0235379
0.337348
0.513335
0.428252
0.120809
-0.265638
-0.545189
-0.589656
-0.380452
-0.0119465
0.341016
0.513842
0.433531
0.138959
-0.230086
-0.493037
-0.52619
-0.316096
0.0388492
0.369044
0.524343
0.444366
0.169002
-0.176517
-0.434254
-0.495258
-0.340895
-0.0389878
0.283222
0.500543
0.547276
0.424393
0.188758
-0.0547403
-0.190819
-0.152199
0.0473633
0.316926
0.527988
0.573059
0.404261
0.0566341
-0.34147
-0.622822
-0.674011
-0.47697
-0.111009
0.269085
0.516161
0.575862
0.493425
0.369185
0.301454
0.331851
0.422991
0.485713
0.44308
0.294094
0.125874
0.0540588
0.138103
0.33564
0.522975
0.566632
0.396348
0.0514935
-0.317876
-0.531594
-0.487632
-0.212389
0.147677
0.400178
0.418803
0.203865
-0.123071
-0.381508
-0.435296
-0.258423
0.0640458
0.383511
0.577594
0.615457
0.546957
0.454875
0.408476
0.427519
0.474206
0.484753
0.423828
0.319758
0.246296
0.265375
0.378444
0.520164
0.594932
0.526161
0.296731
-0.0226762
0.0746237
0.0090585
0.0937484
0.289213
0.491761
0.590123
0.518874
0.285646
-0.0186374
-0.252239
-0.301641
-0.141871
0.151463
0.435215
0.574051
0.503328
0.247864
-0.0798431
-0.322548
-0.363549
-0.184014
0.130643
0.428493
0.571416
0.498672
0.241871
-0.081504
-0.31445
-0.344601
-0.15802
0.15691
0.449967
0.58947
0.520794
0.276264
-0.0323872
-0.256391
-0.288493
-0.114941
0.180474
0.455957
0.587841
0.525496
0.300391
0.017799
-0.183441
-0.204743
-0.0379608
0.233508
0.479082
0.592903
0.537458
0.344172
0.101344
-0.0791325
-0.118564
-0.00766101
0.196843
0.404343
0.53836
0.566679
0.496303
0.362365
0.225434
0.154303
0.190908
0.324899
0.49558
0.61855
0.617633
0.448051
0.126358
-0.244578
-0.514383
-0.571121
-0.391523
-0.0517294
0.293518
0.491628
0.477006
0.291491
0.0563678
-0.0903531
-0.07037
0.0969215
0.312239
0.460831
0.490141
0.43805
0.391614
0.418026
0.517648
0.62447
0.647094
0.521297
0.256726
-0.0439111
-0.233636
-0.214697
-0.000977138
0.28191
0.462855
0.420848
0.146554
-0.242842
-0.5573
-0.646212
-0.469934
-0.107697
0.273704
0.512163
0.541986
0.405162
0.212496
0.0867069
0.0974863
0.228061
0.395942
0.513336
0.546003
0.523308
0.499764
0.510651
0.551604
0.583843
0.55578
0.435981
0.24811
0.410142
0.375592
0.398221
0.473796
0.560388
0.604456
0.566098
0.43852
0.264317
0.125815
0.0976727
0.198592
0.37867
0.548016
0.626485
0.576471
0.411958
0.201157
0.0454346
0.0245104
0.14952
0.357219
0.546204
0.632588
0.58283
0.41779
0.210173
0.0608375
0.0452686
0.170281
0.371632
0.552125
0.635451
0.593989
0.448263
0.263023
0.12776
0.110373
0.217677
0.392707
0.549582
0.62179
0.586356
0.462425
0.306653
0.195697
0.185716
0.278225
0.421139
0.544024
0.599347
0.576594
0.493706
0.38956
0.312561
0.295487
0.335682
0.401109
0.456949
0.48863
0.500486
0.497767
0.47992
0.452056
0.431999
0.439686
0.481998
0.546301
0.601436
0.601759
0.500831
0.286418
0.0164679
-0.195647
-0.248212
-0.11115
0.151129
0.40178
0.502569
0.386185
0.090769
-0.247105
-0.461855
-0.452612
-0.225519
0.114093
0.415428
0.575285
0.589824
0.527633
0.472877
0.476802
0.532448
0.58356
0.563039
0.443557
0.270875
0.143803
0.145624
0.28132
0.466074
0.571648
0.495744
0.217485
-0.171069
-0.497381
-0.610973
-0.462005
-0.12054
0.246161
0.46169
0.439587
0.213855
-0.083527
-0.288212
-0.293648
-0.0992578
0.199517
0.467215
0.610173
0.618002
0.541203
0.450554
0.403408
0.417127
0.462417
0.488
0.464291
0.599493
0.586479
0.538099
0.490784
0.468832
0.476979
0.497628
0.502941
0.480231
0.446369
0.431798
0.451724
0.495541
0.539492
0.562952
0.553133
0.506583
0.438293
0.383291
0.375047
0.419011
0.489307
0.549977
0.577246
0.563651
0.513646
0.446604
0.396012
0.390003
0.429199
0.487226
0.533506
0.553197
0.545947
0.516333
0.47522
0.443227
0.438985
0.461931
0.492748
0.512642
0.51801
0.51471
0.506075
0.493767
0.484313
0.483879
0.487278
0.481899
0.465812
0.454903
0.467005
0.50275
0.545396
0.57465
0.573976
0.530308
0.443704
0.343067
0.279675
0.292676
0.376844
0.483667
0.55636
0.565483
0.518604
0.451533
0.409769
0.419388
0.462875
0.485012
0.435282
0.317257
0.196619
0.155754
0.233852
0.393973
0.535867
0.547236
0.361796
0.00702371
-0.382921
-0.635518
-0.640773
-0.395171
-0.00296328
0.364171
0.567363
0.572653
0.440306
0.279502
0.19358
0.227015
0.346931
0.471012
0.526023
0.499507
0.442816
0.42505
0.478176
0.571915
0.63
0.572015
0.362269
0.0518124
-0.228257
-0.342937
-0.235076
0.0398879
0.333013
0.480607
0.39173
0.0903531
-0.285887
-0.552533
-0.583832
-0.365748
0.00503054
0.362139
0.563793
0.565028
0.413804
0.215491
0.085468
0.0914081
0.221471
0.400078
0.540688
0.629535
0.615659
0.484626
0.314685
0.194499
0.182433
0.277402
0.42406
0.550201
0.609307
0.593262
0.519411
0.421515
0.344292
0.325253
0.371876
0.456012
0.533748
0.573508
0.565495
0.514298
0.437384
0.36779
0.341901
0.37551
0.451039
0.529556
0.576086
0.572775
0.51701
0.424121
0.332599
0.289948
0.32222
0.414542
0.520286
0.590529
0.595967
0.530376
0.413571
0.294767
0.234091
0.266124
0.376193
0.50857
0.599831
0.608225
0.523022
0.370405
0.216038
0.139009
0.18494
0.335852
0.518374
0.64501
0.654455
0.527934
0.300566
0.0652351
-0.0660614
-0.0279844
0.157049
0.38835
0.546942
0.56249
0.439501
0.250517
0.103307
0.0802584
0.188215
0.356916
0.48926
0.531178
0.502502
0.467501
0.480253
0.544507
0.606844
0.583107
0.405733
0.0802032
-0.285888
-0.534698
-0.554164
-0.332115
0.0333942
0.370439
0.529701
0.461026
0.221778
-0.052831
-0.216234
-0.188454
0.0105557
0.278744
0.492981
0.584885
0.568607
0.509781
0.475988
0.496309
0.544978
0.558468
0.480719
0.313989
0.134141
0.0451898
0.106814
0.289298
0.483045
0.557579
0.428172
0.103074
-0.296893
-0.592112
-0.650414
-0.446757
-0.0715667
0.29897
0.497735
0.455389
0.216405
-0.0857324
-0.290172
-0.293492
-0.0948753
0.211187
0.486657
0.565889
0.524452
0.303052
0.0195459
-0.182206
-0.203946
-0.0374545
0.236274
0.489643
0.618522
0.583999
0.410885
0.17824
-0.00487545
-0.0513835
0.059357
0.271994
0.484268
0.602863
0.582666
0.432661
0.21432
0.026458
-0.0409774
0.0453193
0.244274
0.460109
0.593759
0.587806
0.439938
0.206171
-0.00994514
-0.105155
-0.0322403
0.175173
0.417177
0.580331
0.592775
0.445014
0.193951
-0.0480612
-0.164757
-0.0986935
0.119605
0.384067
0.567843
0.586439
0.425111
0.145473
-0.126272
-0.25833
-0.184708
0.0621425
0.363124
0.572318
0.590022
0.396625
0.0633827
-0.260537
-0.420512
-0.341092
-0.0630552
0.270347
0.489171
0.491639
0.284958
-0.0207937
-0.261894
-0.31177
-0.146202
0.151258
0.438503
0.605496
0.633612
0.57863
0.518661
0.505764
0.534865
0.545503
0.462295
0.257708
-0.00628404
-0.20549
-0.233699
-0.068215
0.209901
0.450925
0.518357
0.356979
0.0208318
-0.339017
-0.552837
-0.52555
-0.271403
0.094287
0.408495
0.556503
0.526095
0.389755
0.256785
0.214572
0.281238
0.401684
0.490755
0.497034
0.439572
0.387007
0.400571
0.486971
0.590389
0.622574
0.508545
0.23486
-0.11549
-0.391793
-0.465927
-0.302488
0.0202298
0.337431
0.485015
0.384174
0.0725791
-0.304126
-0.561974
-0.580383
-0.34982
0.0285971
0.383081
0.498488
0.412169
0.112968
-0.252702
-0.506283
-0.530724
-0.315098
0.0447314
0.382593
0.55004
0.485285
0.223232
-0.115821
-0.372513
-0.429592
-0.262595
0.0526497
0.368765
0.542654
0.502785
0.266064
-0.0655466
-0.339756
-0.43105
-0.298555
-0.000564918
0.32445
0.525827
0.515156
0.293171
-0.0481076
-0.3531
-0.481319
-0.375383
-0.0811952
0.264782
0.499401
0.517153
0.307423
-0.0414624
-0.368276
-0.520241
-0.42897
-0.134183
0.22665
0.480729
0.510832
0.299915
-0.0627436
-0.40797
-0.573033
-0.483708
-0.179404
0.196635
0.461094
0.488255
0.261122
-0.120763
-0.473533
-0.625645
-0.505411
-0.168115
0.219191
0.460123
0.43817
0.165127
-0.223077
-0.52771
-0.598859
-0.403492
-0.0310645
0.345654
0.572269
0.600056
0.484305
0.334995
0.256258
0.288317
0.386834
0.458611
0.433591
0.32088
0.202013
0.169274
0.259599
0.425422
0.557793
0.545302
0.331674
-0.0404231
-0.425473
-0.65334
-0.626774
-0.358001
0.0323406
0.362192
0.491642
0.393285
0.150397
-0.0879199
-0.186407
-0.0950531
0.134308
0.384608
0.548732
0.593418
0.559392
0.51568
0.512126
0.550831
0.585054
0.54704
0.396906
0.167922
-0.0365764
-0.106776
0.00148815
0.233689
0.458983
0.540123
0.400781
0.0647578
-0.334138
-0.614143
-0.65013
-0.425799
-0.0400485
0.324465
0.491141
0.364615
0.0268748
-0.3699
-0.639272
-0.662073
-0.428303
-0.0388724
0.324948
0.495438
0.400755
0.0837381
-0.310098
-0.596208
-0.648612
-0.446075
-0.0753678
0.293088
0.490019
0.431311
0.141658
-0.250765
-0.564429
-0.660416
-0.498847
-0.146891
0.236016
0.472184
0.457723
0.19736
-0.195453
-0.538448
-0.676743
-0.552142
-0.216209
0.179181
0.447849
0.468768
0.232269
-0.157075
-0.516035
-0.678938
-0.575935
-0.250228
0.150121
0.434867
0.474422
0.252018
-0.132414
-0.496212
-0.669572
-0.578234
-0.263093
0.129059
0.408058
0.444628
0.226592
-0.138513
-0.465094
-0.588102
-0.445441
-0.100594
0.277697
0.499569
0.455395
0.158746
-0.253403
-0.578459
-0.662177
-0.468416
-0.0876829
0.295428
0.505038
0.474534
0.262511
0.011863
-0.12654
-0.0772152
0.125088
0.364308
0.522336
0.556523
0.510513
0.464689
0.476325
0.542922
0.603056
0.570693
0.385822
0.0673382
-0.269305
-0.47308
-0.449319
-0.207177
0.136689
0.406435
0.463228
0.274843
-0.0686916
-0.392618
-0.534889
-0.42964
-0.125864
0.23677
0.503969
0.598073
0.540792
0.416343
0.321446
0.314647
0.385506
0.466797
0.48554
0.42072
0.321793
0.270273
0.317598
0.446176
0.576703
0.611364
0.481663
0.190207
-0.164206
-0.425932
-0.474357
-0.286252
0.0491387
0.361933
0.547116
0.409157
0.0909785
-0.276992
-0.526277
-0.544951
-0.324411
0.0366212
0.366416
0.509241
0.399074
0.0789604
-0.307655
-0.580322
-0.618513
-0.40675
-0.0363102
0.32286
0.50734
0.439141
0.1462
-0.242698
-0.547788
-0.633684
-0.464918
-0.112517
0.264282
0.493416
0.477738
0.224999
-0.153835
-0.482459
-0.611097
-0.484899
-0.1575
0.222363
0.478279
0.49897
0.277698
-0.0871474
-0.423912
-0.575543
-0.475643
-0.167794
0.20669
0.472791
0.515145
0.32066
-0.0215627
-0.349086
-0.507452
-0.427392
-0.147547
0.199003
0.447014
0.488919
0.318421
0.0272141
-0.231135
-0.319484
-0.188265
0.102526
0.409639
0.581469
0.531929
0.269697
-0.0954451
-0.390268
-0.473058
-0.307089
0.021675
0.3375
0.470457
0.350521
0.0391204
-0.298229
-0.482712
-0.420978
-0.141564
0.223283
0.513169
0.640215
0.620719
0.533613
0.464958
0.461455
0.505469
0.527874
0.456133
0.274135
0.0510903
-0.0960455
-0.0801723
0.0993613
0.347859
0.520419
0.498195
0.247864
-0.147033
-0.510523
-0.675636
-0.571944
-0.245799
0.153541
0.445363
0.523136
0.396277
0.166705
-0.0240371
-0.0693488
0.0485434
0.258971
0.451685
0.549603
0.55157
0.513141
0.495782
0.526268
0.583222
0.609974
0.545429
0.366426
0.123054
-0.0745649
-0.12339
0.00684506
0.249942
0.472896
0.607653
0.500353
0.263012
-0.0164771
-0.209956
-0.223491
-0.048562
0.231358
0.479362
0.577154
0.475479
0.208132
-0.110519
-0.331637
-0.352419
-0.163501
0.149016
0.440635
0.583185
0.519898
0.275566
-0.0462001
-0.297606
-0.36294
-0.213539
0.0829951
0.390259
0.572533
0.558465
0.35684
0.0540483
-0.210277
-0.311798
-0.204209
0.0627005
0.363969
0.563071
0.579393
0.410243
0.129104
-0.13364
-0.252407
-0.17194
0.0690087
0.355641
0.557072
0.592881
0.456075
0.209301
-0.0321303
-0.152584
-0.0970211
0.10406
0.351049
0.529399
0.569727
0.470094
0.289153
0.124045
0.0643646
0.14404
0.324367
0.515889
0.625938
0.597444
0.426427
0.175512
-0.0379129
-0.103364
0.0145072
0.248204
0.455189
0.494033
0.300472
-0.0691355
-0.448695
-0.655753
-0.593869
-0.287568
0.125555
0.461061
0.600743
0.543332
0.375506
0.219097
0.168642
0.241323
0.373419
0.46758
0.463693
0.381277
0.299496
0.295939
0.391474
0.533066
0.621566
0.56339
0.320826
-0.0464056
-0.388094
-0.549452
-0.459246
-0.160419
0.200666
0.443582
0.454473
0.235976
-0.0972932
-0.371993
-0.451882
-0.302028
0.00666399
0.334128
0.552038
0.615041
0.560219
0.464273
0.400993
0.405978
0.459757
0.503387
0.482497
0.393401
0.292111
0.253411
0.314611
0.447253
0.573059
0.584591
0.547534
0.437549
0.290271
0.179239
0.168729
0.269741
0.431733
0.572785
0.624125
0.555971
0.38606
0.18302
0.0430144
0.0364763
0.167327
0.371632
0.553889
0.638066
0.59411
0.438513
0.233987
0.0738835
0.035635
0.137042
0.327427
0.516514
0.624507
0.614457
0.494004
0.31273
0.153017
0.0928915
0.161628
0.323465
0.498966
0.611001
0.619399
0.525407
0.368337
0.219404
0.151739
0.198414
0.333169
0.487636
0.593302
0.614158
0.549873
0.429697
0.307813
0.242683
0.264032
0.35584
0.469416
0.555651
0.588859
0.567616
0.508137
0.440296
0.39633
0.394235
0.431236
0.489654
0.544083
0.564182
0.52453
0.429794
0.32933
0.290907
0.349501
0.473449
0.573361
0.547724
0.339402
-0.0139701
-0.372841
-0.572397
-0.519848
-0.236666
0.143244
0.435233
0.512511
0.365448
0.0922617
-0.150885
-0.23315
-0.115716
0.136663
0.396482
0.555196
0.58702
0.542357
0.497221
0.503403
0.559394
0.612036
0.586714
0.433942
0.176692
-0.0804484
-0.210127
-0.143247
0.0879162
0.358268
0.512974
0.448303
0.161074
-0.235798
-0.56005
-0.665762
-0.510073
-0.159984
0.229926
0.496974
0.562388
0.449967
0.25407
0.0942993
0.057066
0.153394
0.32164
0.471044
0.541973
0.538175
0.506873
0.494891
0.519045
0.561903
0.409562
0.46948
0.509757
0.509895
0.486341
0.471072
0.481499
0.511302
0.542173
0.556782
0.542424
0.495209
0.4306
0.382723
0.381316
0.427556
0.4942
0.548076
0.570415
0.557401
0.512904
0.451461
0.401534
0.39083
0.4241
0.478957
0.525227
0.54669
0.543013
0.518545
0.480378
0.444867
0.43249
0.450215
0.483619
0.510758
0.521649
0.520131
0.511004
0.495273
0.47807
0.470361
0.476815
0.487906
0.49097
0.486669
0.487346
0.49969
0.51631
0.525601
0.522613
0.507063
0.47964
0.448871
0.43581
0.460029
0.517706
0.577454
0.599814
0.560957
0.466086
0.353661
0.282407
0.29482
0.382876
0.490733
0.558365
0.567977
0.549235
0.544812
0.570691
0.598063
0.565593
0.419111
0.164846
-0.106092
-0.26445
-0.226201
-0.00586375
0.28024
0.470736
0.449364
0.204283
-0.159008
-0.464268
-0.564975
-0.414671
-0.0788372
0.292489
0.549396
0.629438
0.566195
0.446252
0.361092
0.361338
0.431264
0.502435
0.501795
0.407907
0.273486
0.190249
0.223187
0.363507
0.527999
0.60306
0.501692
0.210332
-0.180063
-0.504297
-0.620473
-0.480979
-0.147552
0.225467
0.466681
0.481371
0.28362
-0.0180088
-0.267666
-0.34337
-0.213532
0.0593097
0.352632
0.553403
0.618299
0.573447
0.479091
0.398785
0.374645
0.0864645
0.250115
0.439894
0.577676
0.626778
0.592709
0.503682
0.400444
0.328485
0.319509
0.373449
0.458714
0.53373
0.571301
0.563251
0.512107
0.432122
0.355045
0.319451
0.346003
0.421818
0.509059
0.569841
0.582515
0.540482
0.452618
0.351138
0.28473
0.290193
0.366807
0.476036
0.566569
0.601411
0.565919
0.467898
0.343507
0.250909
0.239292
0.316825
0.444511
0.560422
0.613828
0.581516
0.470114
0.321519
0.205643
0.184426
0.272186
0.42448
0.563901
0.623513
0.574135
0.431989
0.260628
0.150049
0.164839
0.299119
0.474467
0.584119
0.552755
0.376218
0.132858
-0.0484558
-0.0657942
0.0897753
0.330311
0.532093
0.617871
0.592391
0.517982
0.464462
0.461823
0.481134
0.461142
0.366724
0.230966
0.137693
0.157956
0.293307
0.463605
0.547486
0.448181
0.150712
-0.246657
-0.570613
-0.676321
-0.517276
-0.158848
0.239499
0.506545
0.557745
0.418481
0.193702
0.017182
-0.0161594
0.103397
0.302919
0.474871
0.548023
0.527779
0.47633
0.460668
0.507501
0.586606
0.627364
0.556203
0.342563
0.0389708
-0.22848
-0.334263
-0.226936
0.0424949
0.337163
0.50291
0.446473
0.173346
-0.205345
-0.517154
-0.624332
-0.484679
-0.156727
0.219692
0.491749
0.577665
0.487099
0.295347
0.110877
0.0288991
-0.282844
-0.0358976
0.275398
0.521183
0.616958
0.547546
0.355304
0.127565
-0.0320108
-0.0516736
0.0752412
0.288389
0.490821
0.5993
0.574908
0.425341
0.205836
0.00946473
-0.0742079
-0.00534762
0.186052
0.412543
0.574127
0.605277
0.491142
0.27059
0.0345148
-0.109263
-0.0926615
0.0781688
0.323792
0.530492
0.608685
0.524918
0.307649
0.0468692
-0.137263
-0.157035
-0.0018202
0.255714
0.493633
0.604579
0.540048
0.321009
0.0389596
-0.174078
-0.214648
-0.0620418
0.210281
0.467894
0.587013
0.511652
0.27139
-0.0213466
-0.216776
-0.213112
-0.0153816
0.263345
0.45987
0.453373
0.231223
-0.0969512
-0.350959
-0.389236
-0.192524
0.128862
0.403446
0.509206
0.43861
0.282389
0.164647
0.16549
0.275494
0.413265
0.494472
0.496252
0.462557
0.4567
0.506887
0.580923
0.601543
0.490227
0.22223
-0.130671
-0.421711
-0.518277
-0.374472
-0.0533605
0.290959
0.491637
0.459622
0.217284
-0.112863
-0.36442
-0.416565
-0.247333
0.0644073
0.377681
0.572579
0.615465
0.552302
0.464252
0.422051
0.44922
0.510491
0.535291
0.467095
0.311965
0.146194
0.0678198
0.130553
0.306628
0.49686
0.582098
0.479741
0.183468
-0.211667
-0.541294
-0.666574
-0.539078
-0.211592
0.172945
0.445552
0.502778
0.341917
0.0503875
-0.227084
-0.357587
-0.547482
-0.258527
0.120674
0.4259
0.53651
0.421796
0.13861
-0.185149
-0.40312
-0.421554
-0.233227
0.0810694
0.381927
0.541208
0.497115
0.264789
-0.0640481
-0.347187
-0.461338
-0.357729
-0.0777824
0.256363
0.496051
0.540572
0.369766
0.0486078
-0.284476
-0.480055
-0.453072
-0.213636
0.133436
0.428785
0.541033
0.421903
0.117233
-0.240026
-0.485579
-0.509809
-0.301323
0.0486239
0.377222
0.533381
0.448255
0.154174
-0.21907
-0.495996
-0.549405
-0.355215
-0.000852437
0.342982
0.509852
0.421884
0.11747
-0.2564
-0.510417
-0.520363
-0.286878
0.0635
0.334653
0.373677
0.158366
-0.18934
-0.468292
-0.521196
-0.324408
0.00326622
0.269674
0.332603
0.184921
-0.0534895
-0.216341
-0.192851
0.0129336
0.293529
0.515569
0.609775
0.59606
0.544176
0.51852
0.53654
0.558195
0.51384
0.359281
0.125573
-0.083817
-0.158127
-0.050931
0.187465
0.427981
0.529599
0.410688
0.089908
-0.30508
-0.596051
-0.65592
-0.460245
-0.0908323
0.290477
0.529258
0.564204
0.435336
0.24745
0.118477
0.119235
0.239071
0.399144
0.506344
0.516721
0.45932
0.404975
0.412552
0.490017
0.58879
0.629453
0.540098
0.297458
-0.036929
-0.329753
-0.452682
-0.351942
-0.0720576
0.254914
0.470403
0.470006
0.242593
-0.121942
-0.461167
-0.625233
-0.597321
-0.309868
0.0742034
0.380944
0.476211
0.322197
-0.0155453
-0.386403
-0.625055
-0.633456
-0.407938
-0.0392954
0.311825
0.494216
0.435546
0.157444
-0.226503
-0.548603
-0.67274
-0.549703
-0.226037
0.16112
0.439328
0.490296
0.292287
-0.0750118
-0.449355
-0.664151
-0.630325
-0.360216
0.0322701
0.368233
0.49697
0.363659
0.022958
-0.37248
-0.640685
-0.665687
-0.436357
-0.0492413
0.317661
0.494933
0.404972
0.0848081
-0.320597
-0.61992
-0.678615
-0.471081
-0.0870838
0.291476
0.48227
0.398009
0.0776968
-0.322805
-0.602167
-0.626843
-0.390266
-0.0149432
0.298706
0.389088
0.226405
-0.0781548
-0.33637
-0.397467
-0.237393
0.0297402
0.219961
0.199229
-0.0283741
-0.323856
-0.503942
-0.452891
-0.181023
0.182601
0.469242
0.579405
0.524828
0.395292
0.29807
0.296088
0.374369
0.457538
0.469604
0.394708
0.289606
0.239079
0.29335
0.430607
0.564573
0.589755
0.434197
0.105516
-0.284933
-0.570726
-0.629192
-0.436176
-0.074599
0.288983
0.490419
0.456525
0.22692
-0.0690867
-0.274313
-0.286648
-0.103058
0.186763
0.450492
0.594113
0.607964
0.546741
0.483757
0.470673
0.511445
0.560874
0.550533
0.433801
0.229476
0.0256607
-0.0723887
-0.0083774
0.190121
0.420372
0.555786
0.50549
0.250616
-0.132175
-0.487471
-0.665701
-0.410141
-0.161382
0.170553
0.428022
0.489789
0.32022
-0.0186573
-0.38072
-0.605666
-0.600637