# vtk DataFile Version 3.0
PFC simulation results
ASCII
DATASET STRUCTURED_POINTS
DIMENSIONS 128 128 1
ORIGIN 0 0 0
SPACING 1 1 1
POINT_DATA 16384
SCALARS psi double
LOOKUP_TABLE default
0.254561
0.298672
0.29553
0.248893
0.181394
0.125087
0.106783
0.134986
0.196045
0.261776
0.303568
0.304804
0.266323
0.204222
0.141813
0.0990526
0.0843318
0.0925903
0.110099
0.122468
0.121247
0.106072
0.0822045
0.0557119
0.0295466
0.00286341
-0.0263827
-0.0577222
-0.086112
-0.103118
-0.100921
-0.0771025
-0.0375587
0.00438186
0.0327569
0.0355677
0.00999454
-0.036083
-0.0866259
-0.122749
-0.128781
-0.0971301
-0.0306039
0.0585864
0.152969
0.235539
0.294383
0.324264
0.325568
0.302766
0.26378
0.219466
0.181349
0.157161
0.146557
0.14085
0.129004
0.107613
0.0874522
0.089281
0.129827
0.208336
0.304471
0.388972
0.437854
0.439803
0.396145
0.318909
0.227657
0.142232
0.0744012
0.0260443
-0.00384642
-0.0104857
0.0172552
0.0872067
0.192538
0.309417
0.406543
0.459187
0.457803
0.407965
0.32557
0.231531
0.146843
0.0876668
0.0615516
0.0667598
0.0951212
0.136404
0.181296
0.221636
0.249064
0.254601
0.230827
0.176095
0.0981507
0.0139601
-0.0556981
-0.0947095
-0.0983905
-0.0746072
-0.0386751
-0.00482063
0.0211454
0.0438365
0.0739426
0.120343
0.183547
0.254263
0.317488
0.359131
0.371351
0.354766
0.317959
0.274993
0.240916
0.225772
0.229441
0.24057
0.241493
0.217825
0.168224
0.108364
0.0650062
0.0618811
0.105478
0.179954
0.259181
0.295117
0.282121
0.228973
0.162412
0.115179
0.110282
0.149214
0.211219
0.264272
0.281107
0.251503
0.185816
0.109397
0.0505615
0.0275274
0.0409644
0.0758099
0.11055
0.128221
0.123353
0.102137
0.0768209
0.0578816
0.0484531
0.0439585
0.0365916
0.0214125
0.000311745
-0.0182091
-0.0231364
-0.00683469
0.0301694
0.0780237
0.120818
0.142717
0.13397
0.0944069
0.0336907
-0.0312832
-0.081145
-0.0998964
-0.0801771
-0.0259256
0.0490594
0.126458
0.190261
0.23179
0.251084
0.255103
0.254148
0.257531
0.269227
0.284785
0.291202
0.271317
0.213192
0.121893
0.0256764
-0.0328149
-0.0193249
0.0699976
0.203236
0.328166
0.397471
0.386925
0.300996
0.170467
0.0420211
-0.0413619
-0.0594013
-0.0194885
0.0547741
0.141206
0.228594
0.312562
0.386034
0.436133
0.450156
0.423563
0.362772
0.28226
0.199945
0.133484
0.0970861
0.0980578
0.134196
0.194245
0.262072
0.322453
0.365198
0.385794
0.383379
0.358368
0.311805
0.24689
0.171182
0.0968505
0.0373201
0.00150658
-0.0107817
-0.00905638
-0.00728258
-0.0161071
-0.036282
-0.0573261
-0.0628116
-0.0395626
0.0146282
0.0893181
0.166537
0.229265
0.268143
0.283453
0.282939
0.277613
0.277141
0.285661
0.299208
0.306344
0.292984
0.25045
0.183293
0.111633
0.064059
0.0629844
0.111013
0.18767
0.257234
0.269249
0.244898
0.196711
0.148749
0.125363
0.138818
0.18204
0.23137
0.25847
0.244719
0.19052
0.115487
0.0496136
0.0191552
0.0341567
0.0843701
0.145593
0.19238
0.209875
0.199095
0.174179
0.153764
0.151009
0.167453
0.193768
0.216241
0.224654
0.217289
0.201261
0.188742
0.19104
0.213096
0.250855
0.292639
0.323614
0.330997
0.308071
0.256335
0.185754
0.11271
0.0553643
0.0274067
0.0327424
0.0639685
0.105923
0.142827
0.165435
0.174763
0.180888
0.197446
0.233995
0.289355
0.349044
0.388397
0.380839
0.309938
0.182752
0.0367784
-0.0707332
-0.0913237
-0.0140721
0.125496
0.262699
0.335821
0.312561
0.20083
0.0460875
-0.0858246
-0.138647
-0.0922029
0.0317211
0.186226
0.326042
0.424795
0.474087
0.474238
0.429924
0.352138
0.259088
0.171773
0.107316
0.0751873
0.0776982
0.112184
0.172071
0.246789
0.322678
0.386153
0.427771
0.444667
0.44002
0.420197
0.391441
0.35795
0.322187
0.286621
0.254892
0.230832
0.21568
0.205622
0.191927
0.164497
0.117618
0.0549371
-0.00982794
-0.0580971
-0.0753103
-0.0581966
-0.0158136
0.0362422
0.0845245
0.123627
0.156103
0.187837
0.222864
0.260662
0.296305
0.32214
0.329916
0.313376
0.271747
0.213226
0.15553
0.120317
0.122353
0.159896
0.213832
0.243071
0.221521
0.189545
0.160628
0.148286
0.159919
0.192369
0.23137
0.256706
0.251705
0.212265
0.150455
0.0905681
0.0588632
0.071307
0.125508
0.201586
0.271847
0.313881
0.320074
0.299516
0.272391
0.259766
0.273555
0.311685
0.360759
0.403918
0.428895
0.432348
0.419702
0.401801
0.39016
0.3925
0.410111
0.437839
0.466179
0.484235
0.482592
0.455979
0.405539
0.339735
0.272498
0.218333
0.186235
0.175669
0.17722
0.178003
0.169172
0.151594
0.136525
0.140434
0.17597
0.243286
0.326222
0.395619
0.418888
0.373375
0.26064
0.114757
-0.00660045
-0.0504507
0.000620526
0.116721
0.236031
0.29691
0.266641
0.155042
0.0119312
-0.0932353
-0.10519
-0.0111259
0.154667
0.331937
0.466122
0.527731
0.51147
0.427813
0.2992
0.158435
0.0415902
-0.0240833
-0.0292648
0.0170843
0.0950643
0.18325
0.264712
0.328422
0.368613
0.384442
0.379863
0.362685
0.342457
0.327724
0.323615
0.33085
0.346656
0.366895
0.387882
0.406704
0.420165
0.423625
0.411058
0.376996
0.319842
0.244876
0.164435
0.0937792
0.0442126
0.0178779
0.0082277
0.00624066
0.00794621
0.0173925
0.0426002
0.0877501
0.147821
0.209718
0.258774
0.285721
0.289723
0.27658
0.25467
0.232059
0.215822
0.211421
0.220031
0.235728
0.246935
0.209269
0.155441
0.125962
0.130835
0.165758
0.215552
0.260922
0.284819
0.277658
0.24109
0.1884
0.140288
0.117395
0.132413
0.184614
0.259193
0.332705
0.382901
0.398184
0.381954
0.350257
0.324257
0.320811
0.345364
0.390667
0.441748
0.483714
0.507702
0.512479
0.502532
0.484966
0.46691
0.454028
0.449985
0.456296
0.471961
0.492788
0.511279
0.518222
0.506166
0.473268
0.425068
0.372588
0.327253
0.295207
0.274275
0.255655
0.229845
0.193673
0.15424
0.12699
0.12838
0.166692
0.235503
0.313077
0.368619
0.374329
0.320173
0.224393
0.129543
0.0806976
0.0985469
0.166804
0.242239
0.279148
0.252615
0.170863
0.073958
0.0165922
0.0392063
0.144117
0.293393
0.430313
0.508053
0.504924
0.422772
0.28126
0.11519
-0.0309763
-0.116687
-0.121167
-0.0512417
0.0634209
0.184344
0.279225
0.330281
0.334908
0.302392
0.24937
0.194614
0.15411
0.137851
0.148824
0.183749
0.23516
0.294284
0.353657
0.408269
0.454972
0.491055
0.513317
0.518317
0.503671
0.469742
0.420769
0.364239
0.307913
0.255783
0.206025
0.153591
0.0967963
0.0431367
0.00846428
0.00806082
0.0452655
0.106383
0.166544
0.203282
0.20907
0.194759
0.181784
0.188278
0.21845
0.261806
0.300711
0.319102
0.307683
0.266997
0.153987
0.0806201
0.0679019
0.11687
0.200748
0.280957
0.325743
0.321606
0.275999
0.212871
0.162034
0.146242
0.172645
0.232222
0.305268
0.369032
0.405278
0.406458
0.378215
0.33653
0.300663
0.285229
0.294792
0.323125
0.357375
0.385018
0.399686
0.402526
0.398883
0.393288
0.386401
0.37564
0.358698
0.337337
0.318691
0.312643
0.326306
0.358843
0.400142
0.434647
0.448581
0.436568
0.404
0.363963
0.330291
0.310161
0.30025
0.289114
0.264747
0.222818
0.170624
0.124806
0.104321
0.121595
0.175044
0.246714
0.308292
0.334954
0.319983
0.279079
0.239167
0.220101
0.22392
0.237785
0.244734
0.233995
0.207672
0.182521
0.183023
0.225426
0.302978
0.385798
0.437143
0.432351
0.36629
0.250211
0.107844
-0.0266358
-0.115024
-0.1287
-0.062478
0.0609236
0.199627
0.309903
0.36178
0.345825
0.272196
0.165689
0.0577364
-0.0236226
-0.0618044
-0.0543298
-0.0103284
0.0547573
0.125194
0.189982
0.245186
0.292655
0.336135
0.377443
0.415071
0.445572
0.466121
0.476309
0.478042
0.473593
0.46284
0.441452
0.401954
0.338566
0.254272
0.165272
0.0970032
0.0709775
0.0902495
0.134627
0.170732
0.171736
0.134814
0.0849201
0.0607027
0.0901278
0.171883
0.275257
0.357517
0.385171
0.346943
0.257589
0.0869023
0.0142235
0.0314868
0.125918
0.2481
0.34066
0.366356
0.321647
0.235132
0.153466
0.118453
0.146523
0.223077
0.313582
0.381794
0.404018
0.375707
0.311375
0.237856
0.182374
0.160946
0.172855
0.203049
0.230436
0.238011
0.22065
0.187092
0.15457
0.138612
0.143973
0.161884
0.175088
0.168022
0.136595
0.0920354
0.0562983
0.0510819
0.0863108
0.154278
0.232502
0.294147
0.32078
0.310645
0.278585
0.248059
0.238812
0.256047
0.287259
0.308986
0.299557
0.250482
0.171432
0.0881515
0.0337479
0.0345133
0.0957657
0.196712
0.299729
0.369657
0.389671
0.363166
0.305695
0.238112
0.183081
0.159192
0.172966
0.216468
0.274128
0.331875
0.378998
0.403708
0.39318
0.341734
0.25723
0.157357
0.0610172
-0.015486
-0.0567519
-0.0484787
0.0158156
0.126007
0.253503
0.360369
0.414006
0.397992
0.31537
0.186952
0.0461075
-0.0710984
-0.1382
-0.146716
-0.106606
-0.0401261
0.0273097
0.0761102
0.0987891
0.101322
0.0985571
0.105651
0.130542
0.171849
0.222444
0.275216
0.326869
0.377557
0.427132
0.471001
0.498812
0.497609
0.458753
0.385743
0.29798
0.225067
0.19133
0.199454
0.225778
0.232732
0.192262
0.10677
0.0136498
-0.0334398
0.00237073
0.115778
0.259594
0.370488
0.401238
0.34038
0.216239
0.0290609
-0.022112
0.0313037
0.160809
0.299645
0.38078
0.369695
0.277445
0.154304
0.0656233
0.057528
0.132385
0.250122
0.352745
0.393746
0.355829
0.25449
0.130218
0.0303955
-0.0123667
0.0063059
0.0634362
0.121552
0.146136
0.11993
0.04962
-0.0372152
-0.105092
-0.128079
-0.102386
-0.0479561
0.0014427
0.0152054
-0.0184178
-0.085906
-0.154545
-0.188152
-0.164525
-0.086124
0.0205435
0.117049
0.17148
0.173456
0.138249
0.0989173
0.0898738
0.128909
0.206872
0.291213
0.341757
0.329631
0.250201
0.127263
0.00764192
-0.0561055
-0.030643
0.0794532
0.232027
0.36808
0.439388
0.424849
0.332948
0.199732
0.0808974
0.0297776
0.0696684
0.181319
0.315455
0.420004
0.460432
0.424058
0.319353
0.176613
0.0404397
-0.0493673
-0.074603
-0.0404574
0.0355481
0.135703
0.245395
0.348765
0.426344
0.459834
0.439427
0.367346
0.257185
0.131865
0.0199061
-0.0522318
-0.069931
-0.0365277
0.0279858
0.0945135
0.135019
0.131996
0.084916
0.0111165
-0.0612103
-0.106056
-0.111029
-0.0800257
-0.0268026
0.0350742
0.099326
0.167236
0.241802
0.320402
0.39146
0.437946
0.446227
0.415613
0.362663
0.3153
0.297087
0.310569
0.332202
0.324577
0.260226
0.143961
0.0188915
-0.0533519
-0.0298751
0.0839261
0.234041
0.347515
0.370965
0.294812
0.157346
0.00545178
-0.0100868
0.0744081
0.217522
0.345473
0.39314
0.33609
0.201442
0.056752
-0.0230445
0.00296717
0.118551
0.260959
0.35688
0.358504
0.261338
0.10354
-0.0508508
-0.141786
-0.141253
-0.0634671
0.0454832
0.130637
0.151471
0.0960697
-0.0156617
-0.139768
-0.226993
-0.245202
-0.193527
-0.101966
-0.0172453
0.0189497
-0.0110511
-0.0933876
-0.189195
-0.252384
-0.25073
-0.180449
-0.068187
0.0410014
0.105123
0.105106
0.0532382
-0.0123784
-0.0450951
-0.012347
0.0869064
0.219521
0.332788
0.37847
0.333278
0.20939
0.0542816
-0.0644011
-0.0890704
-0.0026162
0.160374
0.329935
0.4349
0.43231
0.320868
0.144358
-0.0185831
-0.0888014
-0.0301079
0.129756
0.315723
0.447162
0.473107
0.383318
0.207454
0.00913445
-0.136591
-0.177934
-0.108493
0.0366863
0.204791
0.351317
0.451419
0.496114
0.486569
0.43293
0.352875
0.266118
0.188624
0.131379
0.102583
0.107967
0.147147
0.209764
0.275838
0.320781
0.322623
0.269474
0.166014
0.0357064
-0.0862273
-0.168427
-0.197882
-0.183226
-0.145866
-0.105831
-0.070993
-0.0353364
0.0135071
0.0827236
0.166455
0.2469
0.303977
0.327749
0.325698
0.319071
0.328793
0.359284
0.391801
0.393455
0.338051
0.227631
0.100546
0.0152263
0.0151465
0.0989732
0.218436
0.305944
0.312318
0.2319
0.106305
0.0333241
0.0559218
0.154728
0.283248
0.374055
0.375475
0.278194
0.122562
-0.0168853
-0.069103
-0.00745861
0.133748
0.278695
0.351887
0.314447
0.178667
0.00184893
-0.13929
-0.185977
-0.124888
0.00948638
0.155168
0.252372
0.266244
0.195286
0.0693714
-0.0605389
-0.142199
-0.144734
-0.0717898
0.0411853
0.143608
0.192257
0.168646
0.0850341
-0.0211447
-0.102828
-0.123829
-0.0751338
0.0207899
0.120183
0.178396
0.170086
0.100164
0.00272051
-0.0719877
-0.0795103
-0.00309257
0.135827
0.285317
0.385887
0.395967
0.30886
0.158582
0.0110688
-0.0634306
-0.0263477
0.106858
0.272972
0.392799
0.407893
0.304513
0.123277
-0.0508795
-0.128324
-0.0660111
0.106421
0.304038
0.434662
0.441616
0.319557
0.114169
-0.0901463
-0.204986
-0.181455
-0.0320311
0.180901
0.380473
0.510677
0.549201
0.501575
0.393974
0.267237
0.164627
0.115179
0.123677
0.174477
0.245329
0.319468
0.388055
0.445734
0.486108
0.499995
0.476628
0.408338
0.298298
0.16624
0.0442965
-0.0381761
-0.0706134
-0.0659189
-0.0511237
-0.0509252
-0.073862
-0.108238
-0.129654
-0.115929
-0.0606374
0.0229194
0.109554
0.176999
0.218388
0.244261
0.27265
0.313867
0.360309
0.388662
0.374404
0.310879
0.220303
0.145332
0.122729
0.157744
0.219457
0.260529
0.246559
0.176888
0.0874824
0.112453
0.163365
0.251715
0.337155
0.372199
0.328244
0.212867
0.0717369
-0.0290545
-0.0372988
0.0534509
0.196995
0.319061
0.357235
0.29072
0.148413
-0.00358658
-0.0928446
-0.0770405
0.0363206
0.197709
0.343449
0.425341
0.425428
0.354961
0.247014
0.146283
0.0938151
0.110289
0.187242
0.291829
0.38247
0.426362
0.410278
0.34304
0.252009
0.173718
0.139255
0.160293
0.22347
0.296375
0.341753
0.332615
0.262915
0.151951
0.040253
-0.0250538
-0.0112119
0.0829692
0.223388
0.353996
0.420925
0.395309
0.286743
0.143009
0.0314129
0.00574228
0.0768802
0.205717
0.323222
0.365283
0.303839
0.163769
0.0167826
-0.0549084
-0.00813261
0.133972
0.296418
0.396527
0.384602
0.261168
0.0768819
-0.083915
-0.141434
-0.0624771
0.122508
0.337515
0.501751
0.564023
0.511972
0.367317
0.180527
0.0183758
-0.0610734
-0.0336287
0.0817031
0.235545
0.376001
0.472028
0.51876
0.529242
0.522114
0.510088
0.4932
0.461294
0.405638
0.331331
0.258755
0.210936
0.196809
0.203811
0.204658
0.172985
0.0986215
-0.00500016
-0.105332
-0.166148
-0.166066
-0.109183
-0.0218017
0.062521
0.12074
0.15042
0.167029
0.191257
0.234066
0.28823
0.332323
0.345756
0.324651
0.285206
0.250598
0.233029
0.226666
0.215471
0.187549
0.146192
0.111916
0.223682
0.284512
0.336008
0.355548
0.327016
0.251571
0.151455
0.0651531
0.0329931
0.0760401
0.179889
0.297127
0.37096
0.365456
0.283618
0.166292
0.0738305
0.0565361
0.128562
0.261667
0.402668
0.502686
0.538831
0.516895
0.460296
0.397485
0.353657
0.345148
0.374838
0.431104
0.493351
0.541776
0.564428
0.557997
0.525809
0.477274
0.427449
0.392927
0.384778
0.403483
0.438438
0.470627
0.477393
0.440204
0.354756
0.238192
0.126851
0.0628537
0.0746667
0.160795
0.286221
0.396089
0.440719
0.398962
0.288844
0.160439
0.0724801
0.0628023
0.128518
0.227732
0.302413
0.310291
0.24959
0.161853
0.1063
0.120043
0.193867
0.280808
0.327447
0.303
0.212489
0.0963528
0.0159364
0.0232009
0.129476
0.295705
0.452352
0.534504
0.506717
0.369423
0.158776
-0.0581373
-0.203898
-0.223552
-0.110333
0.089571
0.298619
0.446732
0.500971
0.471092
0.397815
0.331696
0.308841
0.334907
0.386604
0.430725
0.448246
0.444478
0.438762
0.445334
0.460691
0.464408
0.431025
0.345608
0.215417
0.0714515
-0.0433944
-0.0951053
-0.0761128
-0.00892297
0.0661454
0.112014
0.113021
0.0815916
0.0510526
0.0569688
0.115553
0.212614
0.311604
0.375868
0.388081
0.353269
0.289688
0.219788
0.164266
0.13664
0.140466
0.171904
0.337611
0.387751
0.380758
0.320959
0.231661
0.146669
0.0963403
0.0973392
0.149713
0.237461
0.330482
0.392365
0.396584
0.342433
0.258283
0.189015
0.174236
0.228156
0.331754
0.442212
0.515502
0.529931
0.496099
0.447013
0.416227
0.419532
0.450997
0.492122
0.523871
0.534519
0.524149
0.5052
0.4951
0.50386
0.526417
0.546247
0.547166
0.523603
0.483448
0.445071
0.429269
0.446078
0.484003
0.512232
0.497053
0.422249
0.300953
0.173553
0.092096
0.094857
0.182735
0.314193
0.425254
0.462553
0.408458
0.28657
0.149823
0.0569902
0.0449878
0.110402
0.212701
0.298912
0.334939
0.322217
0.287766
0.258248
0.242005
0.231262
0.215369
0.190468
0.162212
0.145678
0.161308
0.222689
0.321581
0.424336
0.486026
0.47133
0.367272
0.187535
-0.0253899
-0.206078
-0.288508
-0.23612
-0.0628144
0.166609
0.362903
0.453824
0.41384
0.271948
0.0998482
-0.0203079
-0.0346699
0.059885
0.217988
0.372891
0.476093
0.519684
0.527658
0.53127
0.547179
0.568327
0.570154
0.527445
0.432282
0.303362
0.180315
0.104225
0.094851
0.138531
0.1945
0.216032
0.174717
0.0770975
-0.0335161
-0.0958062
-0.0648039
0.0591705
0.227577
0.370519
0.434598
0.404612
0.303596
0.181984
0.0972795
0.0863534
0.147492
0.246117
0.428102
0.450841
0.373197
0.232038
0.0937417
0.0224509
0.0467806
0.149092
0.281827
0.394166
0.449425
0.432013
0.353029
0.250858
0.176833
0.169975
0.236772
0.348294
0.454548
0.506667
0.478694
0.382899
0.26817
0.195749
0.205135
0.291674
0.409897
0.500776
0.52242
0.466278
0.359692
0.25559
0.207018
0.23904
0.335339
0.446377
0.515957
0.510074
0.431723
0.320386
0.235891
0.226517
0.299128
0.413221
0.502879
0.512513
0.424449
0.267442
0.107612
0.0202779
0.0492255
0.179282
0.343538
0.460835
0.476988
0.385076
0.223869
0.0626035
-0.0278418
-0.00973138
0.10252
0.253043
0.377883
0.437135
0.423631
0.351398
0.245155
0.138204
0.066763
0.0554309
0.105295
0.196009
0.299363
0.390915
0.451336
0.464716
0.422275
0.326831
0.191638
0.0381789
-0.10211
-0.18888
-0.18522
-0.0778602
0.106697
0.303078
0.430714
0.427952
0.279587
0.0319371
-0.217799
-0.366931
-0.35643
-0.192781
0.0554283
0.289051
0.432569
0.469804
0.437919
0.396578
0.392957
0.438068
0.505555
0.551559
0.543116
0.478343
0.387341
0.314757
0.293563
0.324049
0.371131
0.382422
0.316496
0.168656
-0.0160269
-0.156336
-0.178285
-0.0620685
0.141026
0.335489
0.435416
0.405744
0.272684
0.11169
0.0127376
0.0304734
0.15268
0.311709
0.481862
0.46839
0.320576
0.109062
-0.0593818
-0.098586
0.00815136
0.203049
0.393226
0.502175
0.496085
0.385761
0.222645
0.0831942
0.0343154
0.0984252
0.241917
0.393889
0.480922
0.455909
0.315838
0.110227
-0.0737675
-0.15286
-0.0897389
0.08637
0.290209
0.423859
0.425268
0.29215
0.0827314
-0.107223
-0.190826
-0.130857
0.0452754
0.255384
0.400585
0.415174
0.295632
0.102509
-0.0641874
-0.115948
-0.0229632
0.172036
0.375723
0.492358
0.470273
0.320755
0.113181
-0.0512988
-0.0896549
0.0164119
0.210919
0.396665
0.48783
0.446784
0.292595
0.0927536
-0.0615802
-0.098301
-0.00199569
0.1797
0.364537
0.478789
0.484401
0.381829
0.207131
0.0278327
-0.0794511
-0.0671714
0.0572067
0.236949
0.399281
0.4905
0.48961
0.40577
0.272365
0.13426
0.0277228
-0.0319456
-0.0450354
-0.0134301
0.0650034
0.187298
0.33133
0.451848
0.492315
0.406797
0.187158
-0.113052
-0.387675
-0.530865
-0.489211
-0.281066
0.00728896
0.255847
0.373496
0.342222
0.216587
0.0900124
0.0443555
0.109815
0.256364
0.414974
0.51789
0.535695
0.487477
0.423835
0.395951
0.424245
0.48386
0.51787
0.469732
0.317602
0.0975551
-0.101176
-0.181601
-0.100759
0.097967
0.306973
0.41775
0.378664
0.216963
0.0273084
-0.0757558
-0.0266564
0.149537
0.355033
0.499432
0.450606
0.247421
-0.0101904
-0.185547
-0.183138
-0.00510264
0.253718
0.466582
0.544185
0.463065
0.26275
0.0334851
-0.118555
-0.124184
0.0132177
0.22088
0.395726
0.452878
0.354374
0.122067
-0.160334
-0.377776
-0.439562
-0.319363
-0.0686221
0.198122
0.356674
0.333607
0.134828
-0.154976
-0.406916
-0.51216
-0.427909
-0.189017
0.0998516
0.306817
0.339835
0.188156
-0.0737268
-0.316413
-0.420495
-0.334665
-0.0939104
0.196103
0.409352
0.46308
0.348793
0.12889
-0.0864977
-0.188758
-0.127556
0.0641764
0.291154
0.44862
0.472125
0.357561
0.158683
-0.0313013
-0.120545
-0.0660054
0.104323
0.308267
0.4536
0.4785
0.369043
0.164458
-0.0477211
-0.165828
-0.129178
0.0460011
0.275551
0.456082
0.517098
0.442751
0.27009
0.0753784
-0.0591611
-0.0869401
-0.0158072
0.108571
0.238614
0.349885
0.439213
0.507056
0.542347
0.518396
0.403442
0.188115
-0.084328
-0.321304
-0.428961
-0.362851
-0.149577
0.117713
0.316512
0.355775
0.220277
-0.0206585
-0.244831
-0.342553
-0.269252
-0.0571376
0.202343
0.404216
0.487165
0.459019
0.381241
0.331144
0.356801
0.447236
0.539409
0.557078
0.456013
0.254934
0.0381181
-0.0853677
-0.0509449
0.114631
0.30647
0.406637
0.352358
0.169019
-0.0383586
-0.141118
-0.0687617
0.142938
0.374653
0.48928
0.415353
0.184662
-0.0847242
-0.24328
-0.199675
0.0233433
0.305105
0.503011
0.528932
0.375351
0.109969
-0.146701
-0.276002
-0.22265
-0.0202878
0.228594
0.406602
0.433413
0.287123
0.0107446
-0.292056
-0.498107
-0.524135
-0.359153
-0.0703041
0.216462
0.37349
0.33061
0.100554
-0.221588
-0.495343
-0.605081
-0.507351
-0.240783
0.0812037
0.315014
0.3593
0.198161
-0.0944657
-0.382415
-0.533048
-0.479746
-0.243735
0.0745469
0.33987
0.451908
0.38484
0.18507
-0.0478301
-0.20041
-0.200005
-0.0498065
0.176282
0.374569
0.463449
0.414323
0.256739
0.0673316
-0.0613083
-0.0663808
0.052098
0.23219
0.383526
0.431046
0.345443
0.157996
-0.0429086
-0.150104
-0.0995425
0.0884053
0.318562
0.4762
0.486402
0.342041
0.10615
-0.110114
-0.202434
-0.130747
0.0631189
0.28777
0.460953
0.54883
0.563958
0.540565
0.507031
0.465585
0.392197
0.263806
0.0948495
-0.0543652
-0.11182
-0.0404764
0.135316
0.333555
0.449066
0.40231
0.179451
-0.14677
-0.441257
-0.580595
-0.51283
-0.269895
0.043892
0.295993
0.397659
0.346165
0.215508
0.113487
0.120854
0.24427
0.414914
0.532532
0.525097
0.389161
0.195623
0.0546022
0.0471322
0.168192
0.327771
0.410451
0.347453
0.158297
-0.0527948
-0.154634
-0.0758486
0.143652
0.376566
0.459504
0.377742
0.155362
-0.0878578
-0.209491
-0.133785
0.0993141
0.360189
0.511103
0.478315
0.274092
-0.0112555
-0.244402
-0.316423
-0.199364
0.044686
0.299922
0.457533
0.4587
0.301941
0.0413363
-0.221859
-0.37877
-0.364427
-0.183173
0.0921856
0.346615
0.474878
0.424366
0.210057
-0.0844082
-0.33365
-0.430955
-0.33572
-0.0865557
0.209862
0.424923
0.470298
0.329341
0.0597409
-0.222905
-0.395382
-0.385523
-0.199861
0.0799975
0.334676
0.468386
0.44606
0.292131
0.0777476
-0.10203
-0.168285
-0.0947933
0.0816045
0.281138
0.420732
0.449453
0.364702
0.211372
0.064325
-0.00576176
0.0319938
0.152571
0.288133
0.362922
0.331322
0.204116
0.0509849
-0.0334367
0.0116734
0.170578
0.356656
0.463066
0.420316
0.229993
-0.0277592
-0.224802
-0.255091
-0.0975308
0.17257
0.431201
0.580604
0.59265
0.503942
0.38712
0.310778
0.300853
0.329792
0.345915
0.321619
0.27753
0.26246
0.312139
0.419743
0.533245
0.577316
0.48662
0.242248
-0.0968224
-0.405074
-0.559666
-0.504532
-0.269198
0.0388458
0.277475
0.34522
0.231773
0.0192677
-0.15917
-0.193219
-0.0565005
0.183125
0.404681
0.505245
0.455429
0.308989
0.170406
0.131728
0.211282
0.341451
0.416988
0.365695
0.196008
-0.000504727
-0.101478
-0.0369748
0.158418
0.365974
0.411702
0.342275
0.16427
-0.0189172
-0.0905139
0.00196071
0.209078
0.411356
0.494961
0.411245
0.193171
-0.0583308
-0.220238
-0.214064
-0.0464585
0.20055
0.418656
0.529389
0.507796
0.373528
0.180002
0.00439272
-0.0793743
-0.0344346
0.122808
0.329676
0.504896
0.584269
0.540183
0.385155
0.174563
-0.00479586
-0.0735939
-0.000217117
0.18393
0.398343
0.553305
0.590136
0.495512
0.301816
0.0830843
-0.0710868
-0.0985064
0.0066327
0.192954
0.379417
0.49664
0.510488
0.421413
0.26045
0.0849159
-0.038922
-0.0629411
0.0214365
0.178218
0.341772
0.445645
0.450649
0.360058
0.217688
0.0896802
0.0347401
0.0741557
0.178593
0.283276
0.325943
0.285975
0.199529
0.136966
0.15394
0.249977
0.364751
0.414036
0.339384
0.146224
-0.0843692
-0.22997
-0.199855
0.00495536
0.287383
0.511834
0.582275
0.483071
0.277393
0.0771588
-0.0143684
0.0415298
0.201985
0.375881
0.488668
0.52557
0.521185
0.52109
0.549514
0.59454
0.611919
0.545932
0.364957
0.099241
-0.156071
-0.292782
-0.252873
-0.0586072
0.192228
0.369042
0.374647
0.193064
-0.0965418
-0.350982
-0.441636
-0.323888
-0.0546472
0.237835
0.425585
0.452069
0.35149
0.219361
0.155114
0.200218
0.312957
0.401589
0.389926
0.269256
0.107847
0.00933587
0.0406749
0.182466
0.34111
0.340706
0.302129
0.197104
0.0968047
0.0788521
0.169673
0.32051
0.438731
0.448212
0.332297
0.141522
-0.0290696
-0.0892665
-0.00561885
0.181082
0.383583
0.520935
0.558709
0.511102
0.417376
0.320903
0.259191
0.256136
0.313692
0.409669
0.50739
0.574191
0.59444
0.567062
0.499029
0.408959
0.330968
0.301734
0.337316
0.42149
0.516318
0.585197
0.606962
0.574225
0.491968
0.383537
0.288091
0.24136
0.255928
0.318141
0.400796
0.476808
0.521911
0.513023
0.436036
0.30005
0.143146
0.0225824
-0.00859826
0.0694761
0.226184
0.390811
0.487939
0.474395
0.356417
0.186541
0.0440569
-0.00279086
0.0629321
0.195449
0.316779
0.368668
0.346746
0.293807
0.262963
0.278355
0.317842
0.327736
0.260621
0.115643
-0.0443932
-0.122109
-0.0505242
0.153896
0.391379
0.535161
0.50062
0.285662
-0.0208573
-0.275139
-0.355701
-0.225244
0.0536112
0.351636
0.552621
0.616546
0.575841
0.497333
0.445116
0.449411
0.49125
0.514902
0.466623
0.339285
0.187255
0.0933428
0.114054
0.242962
0.409481
0.512542
0.469522
0.256729
-0.0649261
-0.363423
-0.506279
-0.433734
-0.18462
0.121553
0.34757
0.416013
0.34027
0.203379
0.108852
0.120342
0.2239
0.342983
0.395288
0.34876
0.240272
0.147566
0.133098
0.200106
0.293365
0.241127
0.246689
0.230703
0.221185
0.250529
0.321637
0.39596
0.418315
0.357892
0.232638
0.103324
0.04189
0.0893224
0.228867
0.394302
0.509035
0.531006
0.474174
0.393315
0.345349
0.356361
0.414768
0.487831
0.542246
0.555816
0.525069
0.470542
0.427549
0.422166
0.453546
0.498919
0.534209
0.548048
0.538698
0.508353
0.467613
0.43838
0.441161
0.476582
0.521773
0.546896
0.535205
0.487919
0.418354
0.350506
0.317139
0.343033
0.421257
0.506748
0.538413
0.4746
0.318208
0.123103
-0.022635
-0.0417431
0.0816748
0.286078
0.466361
0.533012
0.453371
0.262097
0.0507419
-0.0724282
-0.0456255
0.107353
0.29566
0.423766
0.447705
0.386314
0.295502
0.230087
0.2107
0.214377
0.198489
0.142924
0.0769146
0.0632046
0.147012
0.310546
0.47098
0.523726
0.398433
0.103804
-0.254544
-0.519349
-0.570673
-0.382187
-0.0331597
0.32168
0.539997
0.56802
0.44362
0.261864
0.129868
0.115536
0.216735
0.368188
0.483952
0.514372
0.47412
0.421249
0.412248
0.465933
0.552154
0.606861
0.56276
0.384399
0.101761
-0.184674
-0.35418
-0.335899
-0.146242
0.117151
0.326649
0.396335
0.319733
0.162365
0.0265396
-0.00413922
0.0859494
0.238689
0.365375
0.405869
0.360359
0.276823
0.211667
0.193956
0.214468
0.116833
0.172705
0.24799
0.322798
0.385573
0.421888
0.40991
0.336207
0.217671
0.104503
0.0569306
0.109939
0.248771
0.412066
0.52135
0.520479
0.408189
0.246575
0.130222
0.129509
0.247915
0.422049
0.563388
0.606687
0.532081
0.369494
0.192779
0.0877661
0.105856
0.237306
0.417931
0.565509
0.621434
0.566907
0.42186
0.244664
0.115717
0.0972543
0.199028
0.372371
0.53523
0.615257
0.578901
0.437311
0.247925
0.101829
0.0777038
0.190779
0.378508
0.534169
0.566367
0.443191
0.207874
-0.029907
-0.144391
-0.0710362
0.14945
0.394843
0.535629
0.502542
0.311462
0.0585555
-0.119911
-0.12638
0.0356805
0.267459
0.443367
0.487155
0.400775
0.248385
0.117365
0.0680202
0.100436
0.166123
0.214929
0.236664
0.262161
0.326056
0.425558
0.508446
0.497154
0.333513
0.028245
-0.315604
-0.549347
-0.565803
-0.350975
0.00516667
0.340344
0.507977
0.451934
0.218244
-0.0698121
-0.269423
-0.289186
-0.123462
0.151658
0.416041
0.575963
0.61213
0.567459
0.507244
0.48392
0.512361
0.56258
0.575573
0.498151
0.323235
0.108473
-0.051004
-0.0801339
0.0304233
0.216175
0.374228
0.421081
0.331728
0.14827
-0.035783
-0.121135
-0.0610691
0.110514
0.302988
0.427477
0.444984
0.372313
0.258301
0.156904
0.106342
-0.0141234
0.0907039
0.24726
0.389465
0.46833
0.459334
0.360845
0.201363
0.0427974
-0.0407582
-0.00158783
0.151615
0.352999
0.510112
0.544211
0.422271
0.181396
-0.0717692
-0.211411
-0.163553
0.0517332
0.32666
0.525221
0.555266
0.39993
0.1207
-0.159486
-0.313947
-0.275229
-0.060075
0.236365
0.482133
0.575295
0.481094
0.235592
-0.0592133
-0.272779
-0.311404
-0.157919
0.122859
0.406974
0.571342
0.549822
0.350758
0.0598379
-0.18239
-0.252311
-0.113268
0.164744
0.439682
0.575358
0.508243
0.268544
-0.0257918
-0.216996
-0.199511
0.0131439
0.297337
0.497061
0.512765
0.342216
0.0789574
-0.127571
-0.157943
2.13476e-05
0.245953
0.436789
0.475808
0.35613
0.153491
-0.0158972
-0.0630472
0.0217116
0.173634
0.308868
0.382969
0.407277
0.42122
0.45031
0.479016
0.455001
0.325328
0.0884874
-0.177243
-0.349516
-0.337607
-0.135141
0.168585
0.424918
0.503371
0.35316
0.0256131
-0.3382
-0.577817
-0.596353
-0.387446
-0.0326772
0.323178
0.549978
0.601619
0.51476
0.373142
0.269061
0.261042
0.345455
0.461483
0.529142
0.500939
0.392097
0.268478
0.204175
0.236163
0.340889
0.447497
0.478534
0.389695
0.194295
-0.0313124
-0.178368
-0.168777
-0.005476
0.227963
0.419139
0.490912
0.428968
0.273045
0.0982088
-0.0139191
-0.12435
0.0213323
0.23988
0.42652
0.504482
0.446062
0.271513
0.0481586
-0.126163
-0.167241
-0.0496705
0.176342
0.407886
0.538637
0.498804
0.277983
-0.0539261
-0.357989
-0.495756
-0.401813
-0.11547
0.22773
0.462231
0.479602
0.267132
-0.089121
-0.431992
-0.612924
-0.560426
-0.294656
0.0748974
0.385409
0.50394
0.383568
0.0721744
-0.297281
-0.563053
-0.616566
-0.436683
-0.0919242
0.271443
0.494911
0.487028
0.252682
-0.104235
-0.411956
-0.519968
-0.375903
-0.0452804
0.314458
0.536366
0.531554
0.316556
0.00509913
-0.233826
-0.268694
-0.0858507
0.204372
0.438362
0.497653
0.363778
0.120334
-0.085863
-0.129338
0.0117993
0.242751
0.418299
0.435406
0.28605
0.0569977
-0.117112
-0.135443
0.006735
0.222928
0.400858
0.474798
0.451853
0.38986
0.35134
0.358237
0.376628
0.346804
0.239861
0.0943543
-0.00345062
0.0197879
0.172333
0.384334
0.540381
0.536896
0.328967
-0.0369343
-0.422497
-0.669267
-0.683939
-0.462172
-0.0883913
0.281781
0.500217
0.505127
0.332124
0.0879415
-0.0960871
-0.127247
0.0077346
0.241401
0.461661
0.577507
0.567173
0.475009
0.377677
0.342266
0.388125
0.474423
0.524914
0.472029
0.296796
0.0519542
-0.151632
-0.20649
-0.0793134
0.16364
0.396317
0.508651
0.456851
0.270198
0.0393948
-0.118903
-0.188984
-0.0154868
0.240128
0.446134
0.509572
0.406104
0.178019
-0.0761104
-0.238029
-0.229205
-0.0518009
0.212116
0.4426
0.53789
0.44497
0.173422
-0.187199
-0.488185
-0.598381
-0.467959
-0.1494
0.213208
0.45113
0.45789
0.225892
-0.150778
-0.506695
-0.690438
-0.632188
-0.353513
0.0336357
0.359868
0.484966
0.358881
0.0319473
-0.35594
-0.636242
-0.697322
-0.516045
-0.158896
0.224739
0.467246
0.468787
0.23038
-0.143641
-0.476955
-0.61191
-0.486649
-0.1552
0.230299
0.495946
0.540747
0.368334
0.0763667
-0.177111
-0.25406
-0.118976
0.142104
0.378262
0.467616
0.379131
0.179607
-0.00150256
-0.0478465
0.0662875
0.258627
0.396817
0.385273
0.220735
-0.00399026
-0.151091
-0.125686
0.0613084
0.303195
0.47131
0.493325
0.384106
0.2289
0.130881
0.145191
0.245805
0.352404
0.397033
0.37477
0.337684
0.346866
0.425122
0.539024
0.615536
0.577361
0.380548
0.0534886
-0.291041
-0.512639
-0.52272
-0.317514
0.0180125
0.332665
0.483042
0.404684
0.134036
-0.203277
-0.449242
-0.494672
-0.319082
0.00671239
0.344493
0.562507
0.607496
0.512426
0.366135
0.270803
0.286912
0.395702
0.511903
0.537715
0.420312
0.186854
-0.0561037
-0.176713
-0.103716
0.122049
0.371894
0.511207
0.470452
0.267807
0.00321451
-0.182762
-0.196086
-0.0104004
0.255659