# vtk DataFile Version 3.0
PFC simulation results
ASCII
DATASET STRUCTURED_POINTS
DIMENSIONS 128 128 1
ORIGIN 0 0 0
SPACING 1 1 1
POINT_DATA 16384
SCALARS psi double
LOOKUP_TABLE default
0.183647
0.464869
0.517262
0.306817
-0.0810411
-0.464558
-0.660675
-0.581846
-0.265745
0.133535
0.412991
0.434107
0.187234
-0.204449
-0.539154
-0.649619
-0.4829
-0.115319
0.273314
0.492129
0.440299
0.140612
-0.267486
-0.587031
-0.671025
-0.483604
-0.107513
0.278527
0.488823
0.428146
0.124716
-0.276262
-0.574876
-0.627021
-0.409114
-0.0266353
0.324468
0.464013
0.322018
-0.0347175
-0.427275
-0.65818
-0.616417
-0.31476
0.112512
0.464579
0.586134
0.432216
0.0737747
-0.31597
-0.541478
-0.497867
-0.22134
0.127355
0.346802
0.313294
0.0460176
-0.303546
-0.537307
-0.528669
-0.282929
0.0751152
0.378864
0.531696
0.552173
0.522969
0.50912
0.507002
0.45143
0.27336
-0.0297962
-0.366317
-0.600019
-0.631431
-0.439926
-0.0937661
0.269179
0.517704
0.60278
0.560316
0.467377
0.397526
0.388664
0.431642
0.48439
0.501229
0.455617
0.344346
0.181396
-0.00796683
-0.191889
-0.33528
-0.400661
-0.353917
-0.185555
0.0626852
0.299778
0.427003
0.383781
0.174709
-0.11861
-0.363443
-0.444682
-0.320916
-0.0400777
0.279005
0.510982
0.597308
0.561546
0.474991
0.412844
0.41414
0.46011
0.489733
0.449268
0.34226
0.234815
0.206941
0.291072
0.443385
0.565363
0.556834
0.366497
0.0320153
-0.313464
-0.509424
-0.461404
-0.186907
0.339004
0.537606
0.551524
0.34902
-0.00148089
-0.343384
-0.512925
-0.430361
-0.134593
0.227807
0.471617
0.473722
0.227169
-0.152916
-0.475904
-0.581761
-0.420454
-0.0683488
0.299995
0.502687
0.445325
0.152179
-0.240469
-0.542202
-0.612717
-0.421834
-0.0558023
0.310086
0.500077
0.428295
0.127942
-0.256286
-0.530911
-0.560917
-0.331449
0.0471162
0.383921
0.511386
0.367899
0.0182757
-0.366986
-0.597175
-0.563418
-0.278328
0.12693
0.457967
0.564508
0.40339
0.0466923
-0.332173
-0.540064
-0.476008
-0.18057
0.182125
0.411303
0.385945
0.123608
-0.229656
-0.477017
-0.486331
-0.255304
0.0971196
0.406169
0.571315
0.602503
0.573436
0.545991
0.522423
0.449472
0.269611
-0.0143589
-0.314716
-0.50677
-0.504709
-0.302145
0.0205353
0.323705
0.484645
0.465568
0.319712
0.15126
0.0581597
0.0856832
0.212442
0.370388
0.488382
0.529846
0.496808
0.410217
0.292507
0.162729
0.0416673
-0.040897
-0.0491498
0.0376507
0.197767
0.361374
0.43823
0.358482
0.110956
-0.229461
-0.523022
-0.640861
-0.526861
-0.218845
0.155483
0.437981
0.532858
0.445655
0.262739
0.105728
0.0678821
0.164136
0.330569
0.472639
0.531872
0.51919
0.490178
0.494085
0.538717
0.586628
0.576159
0.457055
0.233663
-0.0129509
-0.163073
-0.134055
0.0670197
0.487717
0.594543
0.590815
0.44693
0.19974
-0.0452126
-0.165613
-0.096717
0.130018
0.399197
0.572786
0.561608
0.360124
0.0538748
-0.208437
-0.29465
-0.162204
0.121751
0.412894
0.568895
0.518652
0.282244
-0.0331995
-0.274346
-0.323903
-0.158972
0.140872
0.429181
0.569955
0.501479
0.253772
-0.0565735
-0.272529
-0.282945
-0.080857
0.233615
0.503814
0.602213
0.484975
0.20201
-0.114486
-0.308771
-0.286406
-0.0589502
0.260893
0.515559
0.587688
0.445211
0.148605
-0.158686
-0.315397
-0.237821
0.0325147
0.349837
0.547588
0.531204
0.316435
0.0204829
-0.19364
-0.211835
-0.0335829
0.234602
0.452574
0.54191
0.522381
0.470098
0.447127
0.454497
0.437134
0.335118
0.143063
-0.0695657
-0.198615
-0.172387
0.005251
0.250261
0.434988
0.456165
0.291731
0.0162801
-0.235827
-0.346284
-0.269916
-0.045494
0.227272
0.444399
0.556293
0.576271
0.545838
0.498934
0.447789
0.391729
0.336649
0.304568
0.320672
0.387502
0.46971
0.502539
0.419347
0.191948
-0.130371
-0.426245
-0.567568
-0.486562
-0.208649
0.143363
0.403103
0.455501
0.290904
0.00461602
-0.246222
-0.327833
-0.198996
0.0774597
0.372393
0.568503
0.625867
0.580131
0.500196
0.44786
0.447829
0.47611
0.479514
0.421163
0.319036
0.238618
0.242641
0.342615
0.509122
0.5385
0.547775
0.505259
0.406615
0.293126
0.231682
0.266581
0.386206
0.529146
0.62133
0.612661
0.494944
0.311512
0.149137
0.0929904
0.173199
0.346161
0.521536
0.615007
0.585357
0.443132
0.250444
0.101787
0.0741157
0.18165
0.368535
0.541398
0.620787
0.573295
0.417888
0.224821
0.0921954
0.091997
0.225951
0.424918
0.591047
0.651153
0.581433
0.409522
0.211949
0.0860343
0.0955593
0.23277
0.423028
0.568986
0.602063
0.504895
0.315745
0.125475
0.0391064
0.110582
0.305126
0.519386
0.645906
0.630477
0.488994
0.298856
0.165272
0.159225
0.269033
0.407393
0.474012
0.429202
0.31857
0.232154
0.234126
0.315903
0.405918
0.427911
0.360262
0.250958
0.182189
0.213231
0.339162
0.487259
0.551925
0.449225
0.16868
-0.199036
-0.499734
-0.608053
-0.487212
-0.194129
0.144199
0.397512
0.509403
0.511842
0.479251
0.471615
0.501983
0.54293
0.561131
0.548523
0.525081
0.517051
0.531218
0.54123
0.495454
0.350815
0.118191
-0.121743
-0.258888
-0.21918
-0.0119366
0.260183
0.447982
0.436831
0.204431
-0.15788
-0.47871
-0.603802
-0.474626
-0.145873
0.23562
0.508078
0.588271
0.494935
0.317159
0.169174
0.13381
0.220118
0.366832
0.489707
0.540653
0.530496
0.502191
0.491766
0.337119
0.308649
0.357303
0.441954
0.5087
0.530832
0.519821
0.502385
0.49631
0.505393
0.523849
0.538047
0.53042
0.494401
0.447574
0.420743
0.431154
0.470149
0.514813
0.545212
0.549339
0.522164
0.472517
0.42704
0.414143
0.441065
0.489781
0.533799
0.555073
0.54602
0.506931
0.451932
0.410256
0.407738
0.445357
0.500027
0.545121
0.565769
0.556553
0.518001
0.464011
0.422848
0.418057
0.448337
0.489917
0.517005
0.516023
0.484377
0.430264
0.379366
0.367501
0.412647
0.494503
0.567121
0.593008
0.564582
0.50201
0.442343
0.423165
0.456987
0.5115
0.51919
0.422809
0.229332
0.0221945
-0.0891036
-0.0419581
0.137805
0.35189
0.497916
0.536097
0.499909
0.459301
0.471197
0.541954
0.619621
0.619425
0.468569
0.158282
-0.220822
-0.514425
-0.600702
-0.45284
-0.144612
0.178587
0.376732
0.399154
0.303144
0.203878
0.196269
0.298941
0.454008
0.576794
0.615515
0.576157
0.506567
0.460769
0.461058
0.480044
0.462316
0.374879
0.244459
0.14591
0.149696
0.268199
0.436673
0.543577
0.488841
0.237899
-0.139603
-0.484989
-0.641479
-0.538502
-0.21907
0.169132
0.44462
0.496509
0.32887
0.0466198
-0.192745
-0.261714
-0.126551
0.145015
0.424994
0.60226
0.63877
0.563138
0.43873
0.00825099
-0.0619883
0.0370226
0.250449
0.472463
0.610145
0.627247
0.54086
0.403051
0.284217
0.24407
0.299707
0.416555
0.531814
0.594058
0.584822
0.513897
0.412345
0.327414
0.303218
0.35352
0.451033
0.545479
0.595515
0.584798
0.518758
0.422856
0.340697
0.315014
0.359811
0.449278
0.535437
0.5786
0.56227
0.491489
0.393574
0.315271
0.300053
0.358622
0.459913
0.552141
0.594853
0.572867
0.493213
0.385074
0.296021
0.268912
0.314299
0.404629
0.495449
0.552584
0.560064
0.514713
0.429421
0.338372
0.284446
0.296142
0.373212
0.48627
0.586605
0.617505
0.526717
0.296648
-0.0164438
-0.289076
-0.399162
-0.294575
-0.0214417
0.294466
0.523628
0.610883
0.585234
0.520301
0.487702
0.516978
0.577456
0.594714
0.494473
0.257314
-0.0450035
-0.277811
-0.329918
-0.181201
0.0854879
0.322104
0.39682
0.272969
0.0335975
-0.166826
-0.201025
-0.0443649
0.218012
0.447804
0.541681
0.485265
0.346651
0.231009
0.215921
0.303669
0.427598
0.507892
0.512471
0.473354
0.45123
0.484118
0.557085
0.607298
0.556442
0.357603
0.0438012
-0.264545
-0.425637
-0.360822
-0.0983531
0.228858
0.447794
0.441138
0.201063
-0.163353
-0.471725
-0.573046
-0.41869
-0.0751832
0.302386
0.553393
0.598741
0.456248
0.21656
-0.340297
-0.43768
-0.297717
0.0148959
0.353792
0.569806
0.58757
0.420676
0.157009
-0.071614
-0.15199
-0.0465808
0.190757
0.442926
0.594558
0.586656
0.428494
0.192469
-0.00785061
-0.072714
0.0302673
0.249477
0.47637
0.605957
0.584829
0.422458
0.189294
-0.00419927
-0.0622156
0.0440823
0.260753
0.47892
0.595066
0.557839
0.380315
0.139105
-0.0506159
-0.0943518
0.0305155
0.262787
0.488771
0.604674
0.562308
0.378757
0.133612
-0.0574392
-0.102109
0.0191722
0.244614
0.46451
0.581379
0.550301
0.383931
0.148809
-0.0538832
-0.135135
-0.0591197
0.143551
0.38698
0.56775
0.605678
0.460561
0.150165
-0.225479
-0.514276
-0.595371
-0.434287
-0.0967774
0.270181
0.518713
0.585151
0.501299
0.357808
0.256681
0.258841
0.351644
0.458942
0.489731
0.400762
0.233529
0.0923554
0.0726168
0.193774
0.381453
0.505419
0.452353
0.196642
-0.163488
-0.448865
-0.513361
-0.328942
0.00276714
0.303365
0.424237
0.329896
0.105721
-0.0950341
-0.142938
-0.00604682
0.242181
0.477333
0.60777
0.622691
0.573705
0.526953
0.521664
0.547257
0.549056
0.466736
0.288928
0.0812141
-0.0481304
-0.0208004
0.156012
0.383316
0.521354
0.463921
0.191711
-0.200879
-0.538099
-0.664268
-0.521778
-0.170414
0.22762
0.487702
0.504644
0.287627
-0.0511054
-0.546954
-0.657411
-0.499032
-0.139729
0.253816
0.498424
0.493067
0.25117
-0.108942
-0.410352
-0.509447
-0.361649
-0.034607
0.31585
0.525159
0.504399
0.26717
-0.0758204
-0.358184
-0.444567
-0.295072
0.0204064
0.349024
0.534515
0.49529
0.248833
-0.092605
-0.364805
-0.437878
-0.277685
0.0409633
0.362841
0.53344
0.475234
0.211297
-0.139053
-0.407899
-0.468439
-0.292967
0.0376887
0.364677
0.533957
0.471754
0.205655
-0.142105
-0.404031
-0.456795
-0.277758
0.0484574
0.365226
0.526667
0.465917
0.208822
-0.135036
-0.414052
-0.510714
-0.388318
-0.096252
0.244117
0.491796
0.550831
0.392619
0.0621623
-0.31421
-0.575671
-0.612483
-0.409189
-0.0495294
0.308193
0.513436
0.502889
0.314106
0.0606015
-0.119947
-0.136915
0.0107027
0.239919
0.432325
0.509214
0.478655
0.417402
0.409061
0.48327
0.592098
0.635309
0.517259
0.21262
-0.185877
-0.499508
-0.578554
-0.392522
-0.0474287
0.26238
0.366219
0.215131
-0.0958402
-0.380856
-0.47492
-0.323073
0.00291016
0.347023
0.564434
0.603331
0.507541
0.372876
0.294032
0.312761
0.396627
0.468184
0.467081
0.398577
0.327345
0.323642
0.40761
0.530566
0.601225
0.53384
0.296314
-0.0503892
-0.362639
-0.495957
-0.38631
-0.0824833
0.265193
0.47907
0.449216
0.177618
-0.217207
-0.517832
-0.628303
-0.47571
-0.126628
0.252383
0.475491
0.436823
0.150247
-0.252976
-0.578879
-0.677047
-0.50515
-0.138073
0.251452
0.476825
0.436513
0.149708
-0.249122
-0.566384
-0.654602
-0.475597
-0.109285
0.269394
0.477693
0.420682
0.123856
-0.27381
-0.579633
-0.651827
-0.458413
-0.0849981
0.290278
0.486912
0.415286
0.106326
-0.296308
-0.598942
-0.663389
-0.462407
-0.0850974
0.289224
0.481919
0.407175
0.0997995
-0.294901
-0.585272
-0.637515
-0.430238
-0.0576917
0.303162
0.484667
0.411144
0.116723
-0.267727
-0.569549
-0.663961
-0.518833
-0.192703
0.180971
0.451424
0.524123
0.383089
0.0862601
-0.239389
-0.445715
-0.439646
-0.222067
0.11198
0.408797
0.53255
0.426574
0.131799
-0.220505
-0.466671
-0.498744
-0.307168
0.0220136
0.344858
0.54424
0.596915
0.562712
0.527502
0.545489
0.605072
0.634969
0.548243
0.306819
-0.0248094
-0.29579
-0.366812
-0.20286
0.100021
0.360553
0.416287
0.214873
-0.153345
-0.49601
-0.633841
-0.497798
-0.15259
0.232195
0.476769
0.496063
0.325951
0.0896694
-0.0672118
-0.0569439
0.10778
0.3325
0.506468
0.57493
0.560383
0.525345
0.521073
0.555946
0.591824
0.565687
0.430962
0.204022
-0.0238976
-0.137361
-0.0711438
0.145568
0.396056
0.537063
0.471994
0.194218
-0.194079
-0.263504
-0.359428
-0.235168
0.051736
0.357217
0.52402
0.461281
0.179989
-0.201501
-0.504112
-0.587513
-0.414685
-0.0626933
0.300879
0.501037
0.445228
0.155191
-0.236488
-0.540912
-0.616316
-0.430108
-0.0664429
0.300696
0.495183
0.428877
0.130667
-0.260528
-0.555055
-0.615757
-0.415703
-0.0442037
0.322316
0.510687
0.438219
0.137462
-0.252012
-0.54268
-0.600629
-0.40143
-0.0352028
0.323422
0.504986
0.430474
0.135009
-0.24214
-0.517544
-0.562971
-0.36005
-0.00288563
0.338815
0.509441
0.442281
0.172483
-0.177356
-0.447826
-0.524926
-0.383798
-0.0858426
0.244762
0.479025
0.544658
0.438501
0.214832
-0.0237025
-0.16163
-0.128834
0.0640327
0.328186
0.5358
0.578139
0.40557
0.0534419
-0.346952
-0.62561
-0.669224
-0.463095
-0.0922162
0.284817
0.52356
0.577365
0.498926
0.390561
0.343612
0.386174
0.46874
0.499938
0.414516
0.232605
0.0588203
0.00967316
0.127808
0.346841
0.527068
0.537028
0.3256
-0.0393158
-0.388574
-0.549214
-0.444834
-0.131198
0.225171
0.43642
0.400905
0.146537
-0.185977
-0.416195
-0.426015
-0.211652
0.124859
0.431562
0.59861
0.611015
0.527265
0.431788
0.390852
0.418646
0.472499
0.486979
0.428224
0.326576
0.255796
0.27606
0.387746
0.526987
0.601528
0.537266
0.316131
0.00426252
0.10563
0.038413
0.114835
0.300049
0.496282
0.596287
0.534601
0.314187
0.0182881
-0.216722
-0.276551
-0.131022
0.151115
0.432229
0.578009
0.520515
0.278299
-0.0435076
-0.291107
-0.344825
-0.179561
0.125724
0.423024
0.573348
0.51154
0.263184
-0.0597601
-0.301289
-0.344681
-0.169606
0.140994
0.438352
0.587147
0.527095
0.285537
-0.0283364
-0.263626
-0.307344
-0.14
0.157586
0.441501
0.58166
0.52112
0.288398
-0.00954186
-0.228103
-0.26191
-0.0974761
0.183578
0.44622
0.576178
0.529626
0.335967
0.0848494
-0.107744
-0.157868
-0.0516556
0.156907
0.376155
0.52469
0.565756
0.505085
0.377948
0.244426
0.173067
0.206852
0.33716
0.504622
0.624885
0.62031
0.444533
0.114955
-0.261559
-0.530744
-0.580287
-0.390319
-0.0429741
0.302134
0.493651
0.473501
0.292829
0.0771325
-0.0417582
0.0002835
0.169295
0.36022
0.467881
0.459914
0.391837
0.355147
0.405977
0.525131
0.631076
0.630138
0.470623
0.185125
-0.10461
-0.253161
-0.184005
0.0614832
0.339264
0.481253
0.387112
0.0743419
-0.318158
-0.599296
-0.637404
-0.416007
-0.0341821
0.333782
0.537879
0.531795
0.370989
0.172164
0.0559362
0.0834964
0.228952
0.40466
0.523052
0.55328
0.527172
0.499585
0.506136
0.544365
0.578163
0.557382
0.449193
0.272851
0.43153
0.397217
0.412884
0.478378
0.557573
0.601503
0.571318
0.456857
0.293982
0.158913
0.124866
0.21404
0.382635
0.54633
0.627387
0.586976
0.434591
0.231881
0.0755487
0.045885
0.158797
0.356896
0.542664
0.63242
0.589884
0.431515
0.225501
0.0710941
0.0465526
0.163757
0.362521
0.546133
0.635223
0.598054
0.451909
0.260482
0.115729
0.0907107
0.196941
0.378529
0.545729
0.625394
0.589119
0.454395
0.281074
0.152995
0.134023
0.230072
0.38754
0.528552
0.596789
0.577118
0.48827
0.373398
0.286417
0.264715
0.307758
0.382361
0.449511
0.489786
0.505455
0.503252
0.485043
0.456831
0.436059
0.442597
0.484073
0.548427
0.603676
0.601923
0.494762
0.270843
-0.00737803
-0.221456
-0.268157
-0.120648
0.150041
0.400977
0.493419
0.367047
0.0716699
-0.248438
-0.431872
-0.391086
-0.147999
0.181299
0.450624
0.575339
0.569586
0.509208
0.472868
0.49691
0.558991
0.596447
0.548934
0.406423
0.231856
0.127418
0.162411
0.31999
0.500017
0.574665
0.455695
0.144389
-0.245995
-0.53951
-0.602456
-0.407855
-0.0464901
0.305492
0.482832
0.419376
0.166008
-0.136
-0.324855
-0.305739
-0.0902546
0.21827
0.483374
0.616523
0.612737
0.525242
0.426738
0.376743
0.394041
0.449089
0.488231
0.477626
0.606237
0.593057
0.53794
0.480665
0.45075
0.45752
0.485019
0.502988
0.493045
0.466186
0.450216
0.461953
0.495298
0.531569
0.553626
0.549356
0.512702
0.453488
0.401938
0.390247
0.426427
0.488833
0.544903
0.572092
0.562048
0.516737
0.452446
0.401006
0.391729
0.428179
0.48612
0.534681
0.556852
0.549983
0.517428
0.470532
0.43249
0.425837
0.452901
0.493686
0.524703
0.536233
0.530128
0.509908
0.481848
0.459776
0.456414
0.468794
0.480217
0.480053
0.47631
0.484542
0.509044
0.539635
0.561881
0.562179
0.526775
0.451533
0.359373
0.297479
0.3054
0.381777
0.48208
0.550957
0.558201
0.510722
0.444824
0.40632
0.419739
0.464328
0.48218
0.423341
0.295875
0.17119
0.134421
0.222083
0.39009
0.530776
0.529426
0.325821
-0.0387292
-0.418138
-0.64112
-0.609763
-0.336366
0.0605243
0.407908
0.581925
0.566685
0.432871
0.289238
0.227902
0.277544
0.394498
0.497561
0.526551
0.484995
0.43147
0.429035
0.495537
0.588367
0.627854
0.540243
0.305282
-0.00796452
-0.26218
-0.334133
-0.187439
0.103006
0.380678
0.491615
0.363058
0.0365445
-0.339484
-0.584155
-0.585525
-0.343025
0.0370567
0.386318
0.569871
0.551139
0.38325
0.174953
0.0432341
0.0549195
0.196031
0.388035
0.540562
0.624937
0.608438
0.469771
0.289902
0.161716
0.147359
0.247564
0.405692
0.544945
0.613327
0.599518
0.520922
0.413988
0.327691
0.303747
0.352039
0.44374
0.531132
0.577949
0.571838
0.517801
0.435477
0.360527
0.331498
0.365206
0.443608
0.526067
0.575928
0.575067
0.521647
0.431187
0.341171
0.297896
0.327068
0.414658
0.515865
0.584108
0.592338
0.53525
0.430492
0.322143
0.265171
0.292088
0.390452
0.51032
0.594972
0.607056
0.535503
0.400325
0.257898
0.181124
0.216301
0.351686
0.521843
0.644675
0.659731
0.54498
0.329093
0.0982232
-0.0380197
-0.0113113
0.161283
0.383362
0.536943
0.550176
0.426678
0.239919
0.0983189
0.0824407
0.195122
0.362472
0.487369
0.520159
0.486735
0.454918
0.476828
0.548841
0.608812
0.568244
0.364285
0.0170341
-0.350284
-0.576716
-0.560392
-0.305026
0.0754168
0.403393
0.539771
0.451188
0.208632
-0.0483864
-0.181641
-0.126874
0.0814534
0.335866
0.521975
0.587747
0.558709
0.501688
0.477289
0.504275
0.549114
0.547786
0.452897
0.280511
0.114532
0.0534083
0.141264
0.332866
0.513004
0.558172
0.397334
0.0541096
-0.340282
-0.609851
-0.636223
-0.408135
-0.0263859
0.330857
0.505092
0.437605
0.179915
-0.130522
-0.333251
-0.328811
-0.120019
0.196127
0.479125
0.558303
0.511132
0.281846
-0.00999295
-0.218248
-0.242821
-0.0738736
0.208154
0.473076
0.611961
0.582206
0.407375
0.167556
-0.025015
-0.0790839
0.0295405
0.246958
0.468843
0.597324
0.583569
0.435114
0.213697
0.0199237
-0.0534394
0.0295341
0.229296
0.449801
0.590187
0.591343
0.449799
0.21999
0.00394008
-0.0950943
-0.0283054
0.173209
0.412268
0.577225
0.596722
0.460221
0.220992
-0.0137955
-0.131074
-0.0728791
0.134097
0.389845
0.572978
0.600997
0.456291
0.192445
-0.0733505
-0.212342
-0.154481
0.0753982
0.366009
0.575484
0.602675
0.422554
0.0987233
-0.225463
-0.394877
-0.328937
-0.0630308
0.262836
0.478414
0.479507
0.272516
-0.0307826
-0.265362
-0.306155
-0.133021
0.165952
0.44759
0.606214
0.629895
0.578849
0.529957
0.527571
0.556246
0.549219
0.434411
0.1982
-0.0802036
-0.268789
-0.267827
-0.070008
0.226931
0.464996
0.513141
0.330617
-0.0122623
-0.355889
-0.536573
-0.474151
-0.199168
0.161686
0.448824
0.563847
0.51012
0.367901
0.245324
0.22036
0.29894
0.418607
0.496683
0.492337
0.434214
0.391377
0.416734
0.50701
0.601889
0.616069
0.482753
0.199773
-0.141224
-0.391928
-0.436204
-0.25204
0.0726196
0.372784
0.494172
0.36906
0.042447
-0.33701
-0.588392
-0.597451
-0.359111
0.0235907
0.378451
0.496485
0.402817
0.0979008
-0.2722
-0.529419
-0.556932
-0.342516
0.0202701
0.365421
0.541438
0.482875
0.222128
-0.121312
-0.386385
-0.452384
-0.290964
0.0253504
0.34938
0.534233
0.503846
0.272046
-0.060716
-0.341164
-0.440588
-0.314544
-0.0182694
0.311007
0.520942
0.52017
0.306558
-0.0308748
-0.33809
-0.473134
-0.375533
-0.0876937
0.25706
0.496576
0.524004
0.325809
-0.0143644
-0.339544
-0.49737
-0.416509
-0.131926
0.22454
0.483536
0.526927
0.332525
-0.0190474
-0.365533
-0.54335
-0.471816
-0.182625
0.187719
0.4577
0.497396
0.282843
-0.0934423
-0.450672
-0.613904
-0.505434
-0.176018
0.208799
0.450432
0.429023
0.155838
-0.230675
-0.529625
-0.591778
-0.387645
-0.011785
0.360656
0.579249
0.602841
0.492617
0.358414
0.296326
0.334375
0.41951
0.460139
0.399081
0.262471
0.142341
0.128703
0.245422
0.428678
0.55953
0.528003
0.289577
-0.0953899
-0.469196
-0.665247
-0.600356
-0.303638
0.0896424
0.396347
0.491015
0.364349
0.113006
-0.110746
-0.181097
-0.0635529
0.177011
0.420031
0.566818
0.596217
0.55496
0.51072
0.508574
0.546289
0.575584
0.531199
0.379759
0.16092
-0.0226584
-0.0700164
0.0517546
0.281109
0.489325
0.54863
0.392165
0.0495646
-0.34445
-0.613213
-0.638735
-0.409454
-0.0259149
0.331134
0.498243
0.365894
0.0273588
-0.368436
-0.638263
-0.664242
-0.435183
-0.0488472
0.316182
0.491916
0.403834
0.0911446
-0.303659
-0.596139
-0.657626
-0.463098
-0.0951259
0.277976
0.484681
0.43647
0.153797
-0.238318
-0.558227
-0.66366
-0.510725
-0.162783
0.223016
0.467646
0.463557
0.211478
-0.178894
-0.526447
-0.673707
-0.558564
-0.228653
0.16725
0.442863
0.474066
0.246956
-0.138559
-0.501723
-0.674938
-0.583988
-0.266753
0.133682
0.427854
0.482047
0.272926
-0.106866
-0.478158
-0.667422
-0.59318
-0.288998
0.10366
0.393487
0.444199
0.236205
-0.127648
-0.461452
-0.594915
-0.460027
-0.116893
0.265162
0.492018
0.450068
0.152786
-0.259568
-0.581212
-0.657577
-0.455534
-0.0709551
0.308151
0.508998
0.473012
0.266594
0.0343127
-0.080542
-0.0155757
0.183076
0.397647
0.521377
0.528404
0.473717
0.438253
0.469495
0.550333
0.608342
0.555871
0.341986
0.00279169
-0.331567
-0.509884
-0.449997
-0.17831
0.173029
0.424631
0.448922
0.231828
-0.119565
-0.424714
-0.531384
-0.390427
-0.0670097
0.29045
0.533871
0.600333
0.522618
0.38952
0.297011
0.298552
0.377539
0.463609
0.485726
0.427498
0.339821
0.29964
0.351391
0.47406
0.591567
0.613358
0.477447
0.189912
-0.151655
-0.397885
-0.435462
-0.245781
0.0813175
0.380626
0.558682
0.419605
0.107441
-0.253235
-0.499443
-0.521212
-0.30856
0.04364
0.368441
0.512584
0.408742
0.0956567
-0.288298
-0.564748
-0.611306
-0.408827
-0.0442128
0.315752
0.507099
0.448446
0.163187
-0.224185
-0.534844
-0.630374
-0.471109
-0.124056
0.25406
0.490089
0.483246
0.237101
-0.14108
-0.475779
-0.614241
-0.497339
-0.174649
0.207507
0.471258
0.501064
0.285646
-0.0802861
-0.42571
-0.590214
-0.502261
-0.199925
0.179014
0.457335
0.513168
0.32685
-0.0171892
-0.356614
-0.531592
-0.465569
-0.190668
0.162925
0.42559
0.481146
0.316882
0.0227668
-0.244451
-0.341382
-0.213082
0.0821853
0.398204
0.577657
0.530602
0.266202
-0.101896
-0.39631
-0.474092
-0.301271
0.0306151
0.341617
0.46353
0.334183
0.0249956
-0.294199
-0.450858
-0.364236
-0.0759652
0.275442
0.537646
0.639316
0.609025
0.528296
0.476229
0.486473
0.529497
0.532325
0.429408
0.220147
-0.0110171
-0.1431
-0.0982967
0.107683
0.365165
0.524436
0.47427
0.197421
-0.204433
-0.547967
-0.675459
-0.532898
-0.183767
0.211015
0.474974
0.517401
0.362506
0.121616
-0.0621308
-0.0891404
0.0480596
0.270895
0.467148
0.563652
0.563553
0.522627
0.500364
0.523497
0.573664
0.598181
0.53875
0.37293
0.148156
-0.0318684
-0.0711314
0.0568138
0.287378
0.494748
0.612438
0.510399
0.285984
0.0199148
-0.166721
-0.182918
-0.0184972
0.248181
0.486687
0.582826
0.487
0.228706
-0.0837909
-0.305502
-0.333089
-0.153814
0.150712
0.439692
0.585677
0.529731
0.292654
-0.0264476
-0.281716
-0.355391
-0.214833
0.0762608
0.38365
0.570643
0.562805
0.365367
0.0617067
-0.209025
-0.319644
-0.219585
0.0450051
0.350253
0.557007
0.580206
0.413248
0.127282
-0.146489
-0.278229
-0.207107
0.0328284
0.327733
0.542059
0.588314
0.454242
0.200504
-0.0551601
-0.190718
-0.144049
0.0590218
0.318249
0.512256
0.563408
0.465524
0.278195
0.103555
0.0376713
0.1188
0.307925
0.510705
0.628392
0.600822
0.42522
0.168468
-0.0473619
-0.109909
0.0135829
0.24975
0.450882
0.475466
0.266342
-0.10799
-0.473769
-0.652913
-0.560761
-0.235294
0.176254
0.493136
0.612004
0.54488
0.383397
0.244845
0.21182
0.288674
0.405526
0.470062
0.436205
0.337973
0.260637
0.276288
0.392398
0.542573
0.621922
0.541019
0.274856
-0.100177
-0.425334
-0.552706
-0.426447
-0.106473
0.249328
0.463868
0.438048
0.190738
-0.151038
-0.412002
-0.465356
-0.28889
0.0356212
0.363033
0.568964
0.615614
0.544718
0.435539
0.364529
0.369299
0.430694
0.488521
0.48613
0.416359
0.330086
0.296854
0.352031
0.470896
0.583292
0.570238
0.544782
0.452969
0.322991
0.221193
0.208575
0.298097
0.445279
0.575348
0.623996
0.561484
0.401692
0.207294
0.0697511
0.0586762
0.180708
0.376318
0.553842
0.638662
0.59958
0.450069
0.249007
0.0874133
0.0435926
0.138462
0.32461
0.513351
0.62408
0.617593
0.499006
0.315951
0.150767
0.0839591
0.148402
0.310845
0.491529
0.610214
0.622911
0.528134
0.364335
0.204637
0.126713
0.168719
0.307245
0.472264
0.589497
0.61679
0.550537
0.420399
0.28465
0.208269
0.226872
0.326442
0.454591
0.554489
0.593833
0.569523
0.500957
0.423839
0.37609
0.37839
0.425937
0.495282
0.555252
0.573344
0.526279
0.423478
0.31907
0.282829
0.34722
0.474369
0.568524
0.526125
0.295856
-0.0713758
-0.424897
-0.601102
-0.517915
-0.210359
0.176516
0.458038
0.519046
0.363355
0.0968245
-0.126383
-0.185925
-0.055921
0.190011
0.426075
0.556303
0.569028
0.521638
0.487718
0.509371
0.573722
0.620992
0.577925
0.404316
0.136838
-0.111051
-0.215481
-0.120365
0.126723
0.391253
0.521164
0.424633
0.113635
-0.286006
-0.590763
-0.665426
-0.480456
-0.115078
0.269242
0.514273
0.551525
0.413006
0.199319
0.0340681
0.00325364
0.11438
0.30137
0.469022
0.554122
0.557606
0.524564
0.502412
0.513068
0.546737
0.370527
0.44693
0.508165
0.526356
0.511918
0.494559
0.494056
0.510088
0.531063
0.543756
0.535486
0.498845
0.443983
0.400591
0.39706
0.436494
0.495353
0.543942
0.565237
0.555099
0.515402
0.457842
0.408789
0.396007
0.426141
0.478927
0.5251
0.547851
0.545493
0.521043
0.480851
0.441767
0.426204
0.443508
0.480314
0.513302
0.529399
0.529568
0.51733
0.494443
0.468815
0.455476
0.462631
0.481458
0.495896
0.500713
0.503507
0.509887
0.515165
0.512936
0.503912
0.491483
0.475734
0.459638
0.456599
0.481397
0.531005
0.57921
0.592765
0.55216
0.463398
0.361646
0.299604
0.314582
0.397334
0.495188
0.553599
0.559557
0.544512
0.548544
0.580892
0.60496
0.555551
0.382886
0.1061
-0.17033
-0.31412
-0.249571
-0.00472024
0.292141
0.476836
0.441072
0.185868
-0.172961
-0.458501
-0.533036
-0.362112
-0.0219662
0.334767
0.56807
0.629395
0.560384
0.447745
0.376336
0.386872
0.455974
0.514161
0.494965
0.387934
0.254057
0.184489
0.23515
0.385529
0.545351
0.602489
0.478124
0.170884
-0.216975
-0.51928
-0.604215
-0.437253
-0.0925132
0.269288
0.482307
0.463379
0.23688
-0.080254
-0.329082
-0.391895
-0.243845
0.0465907
0.351944
0.55675
0.617678
0.56176
0.452164
0.358448
0.329186
0.0319155
0.213275
0.42307
0.576456
0.632177
0.594909
0.495707
0.380835
0.301475
0.29246
0.353349
0.449316
0.534222
0.577212
0.568972
0.513343
0.427283
0.345346
0.307891
0.335883
0.415408
0.506771
0.570418
0.584277
0.542525
0.454915
0.353826
0.287529
0.292378
0.36755
0.474912
0.564073
0.59932
0.567048
0.474732
0.356287
0.266966
0.25425
0.326651
0.447402
0.557902
0.610573
0.58387
0.48318
0.345734
0.235767
0.212237
0.290661
0.431135
0.561998
0.620698
0.579379
0.451427
0.293558
0.188646
0.198602
0.320535
0.4825
0.583959
0.552542
0.383143
0.149767
-0.0246227
-0.0422363
0.105568
0.334568
0.527067
0.610887
0.592622
0.531946
0.491091
0.490481
0.495609
0.448583
0.326397
0.17598
0.0873148
0.126371
0.282341
0.462865
0.541646
0.426578
0.114473
-0.2839
-0.591714
-0.671295
-0.487219
-0.116086
0.276965
0.527002
0.561975
0.416408
0.197886
0.0359538
0.0167372
0.141443
0.33344
0.489112
0.546548
0.519096
0.470519
0.462999
0.515741
0.593142
0.624173
0.539794
0.317943
0.0197454
-0.227542
-0.306554
-0.177861
0.0967528
0.376765
0.514552
0.427677
0.131861
-0.253733
-0.556172
-0.64517
-0.486894
-0.146494
0.231684
0.494987
0.565013
0.454825
0.244279
0.0478298
-0.0353652
-0.330184
-0.0693004
0.2559
0.510926
0.608511
0.533795
0.332289
0.0961346
-0.0671494
-0.0846684
0.0492623
0.271922
0.483068
0.596765
0.573298
0.42125
0.197637
-0.00252197
-0.0882848
-0.0192614
0.174488
0.404788
0.570453
0.605161
0.493908
0.275312
0.0397097
-0.105282
-0.0911207
0.0770159
0.321012
0.528312
0.609904
0.53213
0.321797
0.0658763
-0.117816
-0.141643
0.0068653
0.258175
0.493709
0.608129
0.552818
0.345758
0.0727973
-0.13875
-0.185877
-0.0446566
0.216731
0.469274
0.592031
0.528193
0.302658
0.0203344
-0.174534
-0.180028
0.00333787
0.268959
0.45909
0.454454
0.240059
-0.0793447
-0.328721
-0.369236
-0.181285
0.128291
0.394034
0.499509
0.439719
0.303036
0.205282
0.215519
0.31701
0.430458
0.483101
0.465749
0.429615
0.43537
0.500969
0.582631
0.596771
0.466939
0.17854
-0.183287
-0.465298
-0.539598
-0.370673
-0.0328491
0.312756
0.502279
0.456563
0.207617
-0.116999
-0.353118
-0.387539
-0.20685
0.103891
0.404273
0.582259
0.612565
0.544698
0.458616
0.420964
0.450705
0.51013
0.529931
0.458632
0.308259
0.156524
0.0959131
0.170957
0.346581
0.522918
0.586971
0.464617
0.157792
-0.232825
-0.545063
-0.648776
-0.504242
-0.171248
0.204058
0.456564
0.489661
0.305771
-0.00282541
-0.287338
-0.414915
-0.564895
-0.268776
0.114379
0.419109
0.525047
0.403046
0.112807
-0.214656
-0.431999
-0.446703
-0.252927
0.0675064
0.373811
0.536583
0.493676
0.260644
-0.0700776
-0.355484
-0.471633
-0.3692
-0.0888593
0.247736
0.491456
0.540617
0.374104
0.0556207
-0.277549
-0.475833
-0.452918
-0.217217
0.128387
0.425787
0.543426
0.431649
0.133536
-0.221311
-0.469802
-0.500714
-0.299799
0.0451639
0.374305
0.53709
0.462773
0.179404
-0.188862
-0.469252
-0.532466
-0.35003
-0.00418399
0.338757
0.513116
0.438053
0.146214
-0.222167
-0.480625
-0.502225
-0.282522
0.057561
0.325886
0.369318
0.162262
-0.177807
-0.453558
-0.509325
-0.321072
-0.00491196
0.252421
0.31467
0.178409
-0.037911
-0.175967
-0.136021
0.0692447
0.331935
0.528826
0.604199
0.585722
0.541996
0.529024
0.553421
0.567978
0.503519
0.324354
0.0741895
-0.135046
-0.194033
-0.0652895
0.189773
0.434488
0.528271
0.396591
0.0676648
-0.323765
-0.599975
-0.640502
-0.42895
-0.054648
0.31815
0.54092
0.560864
0.423414
0.235064
0.111843
0.120088
0.244792
0.405413
0.51102
0.52192
0.469177
0.421089
0.431555
0.50526
0.594601
0.624548
0.528607
0.288846
-0.0305155
-0.300174
-0.400705
-0.286933
-0.00937935
0.299893
0.489867
0.464875
0.219002
-0.154724
-0.493455
-0.650935
-0.574159
-0.286865
0.0904009
0.386406
0.471087
0.309376
-0.0316404
-0.401141
-0.635761
-0.640099
-0.41186
-0.0418877
0.309777
0.492652
0.43481
0.157676
-0.22587
-0.548729
-0.674756
-0.55412
-0.232152
0.155358
0.436338
0.491693
0.298206
-0.0665037
-0.441748
-0.660514
-0.631951
-0.366276
0.0248586
0.363677
0.498555
0.372385
0.0365386
-0.359323
-0.63327
-0.666684
-0.445057
-0.0613273
0.308673
0.49433
0.414565
0.101796
-0.303349
-0.61005
-0.680198
-0.483448
-0.104619
0.277349
0.478325
0.406159
0.0942849
-0.305962
-0.593359
-0.630291
-0.405155
-0.0356931
0.279801
0.37741
0.223352
-0.0743846
-0.329755
-0.393048
-0.240329
0.0158121
0.19553
0.170602
-0.0497382
-0.326064
-0.481473
-0.4099
-0.13063
0.223977
0.492364
0.58762
0.529824
0.408995
0.325411
0.331662
0.404909
0.469142
0.455837
0.360597
0.248842
0.206257
0.276356
0.427304
0.565222
0.583272
0.414233
0.0745318
-0.316138
-0.590011
-0.630003
-0.419701
-0.0498133
0.309263
0.497241
0.448641
0.209773
-0.086259
-0.283194
-0.283716
-0.0904048
0.202941
0.463783
0.601639
0.610035
0.544064
0.476189
0.458117
0.495243
0.544434
0.539349
0.43542
0.251695
0.0717706
-0.00735706
0.0630966
0.252538
0.462274
0.575073
0.508185
0.246395
-0.133578
-0.479883
-0.648506
-0.352098
-0.110631
0.205477
0.445078
0.493645
0.318464
-0.018924
-0.375265
-0.594296