# vtk DataFile Version 3.0
PFC simulation results
ASCII
DATASET STRUCTURED_POINTS
DIMENSIONS 128 128 1
ORIGIN 0 0 0
SPACING 1 1 1
POINT_DATA 16384
SCALARS psi double
LOOKUP_TABLE default
0.205333
0.466268
0.489239
0.25261
-0.142963
-0.508513
-0.669482
-0.553812
-0.214195
0.185226
0.445173
0.441852
0.179427
-0.212024
-0.533239
-0.626321
-0.448023
-0.0815055
0.292881
0.491111
0.42111
0.113253
-0.28829
-0.589161
-0.650719
-0.44633
-0.0674891
0.304052
0.489479
0.404717
0.0884817
-0.307408
-0.585981
-0.613607
-0.378256
0.00505225
0.338562
0.450338
0.283019
-0.0838439
-0.464767
-0.667651
-0.593121
-0.266616
0.166295
0.503835
0.600826
0.423444
0.0519783
-0.333826
-0.540428
-0.472933
-0.179438
0.173118
0.388719
0.353375
0.0869535
-0.268339
-0.522722
-0.548904
-0.340732
-0.00356791
0.309262
0.495866
0.556458
0.552112
0.529289
0.477692
0.346811
0.104643
-0.209595
-0.490978
-0.630613
-0.569993
-0.321036
0.0288136
0.348168
0.537422
0.577666
0.516539
0.428046
0.374767
0.381569
0.43029
0.476965
0.480652
0.425269
0.321892
0.194938
0.065116
-0.0576576
-0.165643
-0.23834
-0.24065
-0.144898
0.0362714
0.237535
0.36707
0.351687
0.174312
-0.104444
-0.361901
-0.476477
-0.389459
-0.128851
0.198877
0.462116
0.582518
0.566778
0.480467
0.403978
0.388939
0.429543
0.47074
0.454529
0.372903
0.280787
0.253756
0.326889
0.462356
0.566795
0.542354
0.339795
0.00154268
-0.335631
-0.514077
-0.447009
-0.161146
0.35459
0.534834
0.520234
0.288572
-0.0767455
-0.409098
-0.549618
-0.432481
-0.111545
0.255294
0.482374
0.456276
0.182894
-0.210597
-0.528845
-0.617677
-0.436915
-0.0717394
0.297642
0.489759
0.416155
0.110657
-0.281182
-0.567563
-0.615359
-0.404414
-0.0308923
0.325239
0.49336
0.398561
0.0862144
-0.29055
-0.540894
-0.541669
-0.291657
0.088227
0.406563
0.506293
0.339752
-0.0160033
-0.385774
-0.586158
-0.521333
-0.216587
0.18908
0.506905
0.602866
0.445989
0.10862
-0.245508
-0.434978
-0.366668
-0.0848237
0.251274
0.455739
0.419502
0.157334
-0.198698
-0.463845
-0.506866
-0.313652
0.0169799
0.333558
0.529875
0.597638
0.590108
0.552092
0.479971
0.334966
0.0956393
-0.195232
-0.438686
-0.537935
-0.448087
-0.1945
0.126799
0.385904
0.489829
0.426895
0.260475
0.0918166
0.00884091
0.046906
0.180266
0.341782
0.463341
0.512974
0.499883
0.451365
0.387621
0.312826
0.225819
0.13908
0.0856698
0.101502
0.192882
0.316943
0.394409
0.347042
0.14189
-0.172854
-0.47446
-0.630668
-0.567357
-0.298571
0.0681855
0.375494
0.508057
0.449357
0.272942
0.100431
0.0374547
0.115978
0.283722
0.445796
0.532311
0.540832
0.520141
0.520435
0.554587
0.590098
0.568021
0.439998
0.213591
-0.0274758
-0.165012
-0.122003
0.0870153
0.501453
0.596244
0.570144
0.399103
0.132133
-0.113864
-0.216089
-0.119587
0.130596
0.407562
0.569523
0.531577
0.298004
-0.0316891
-0.298209
-0.369973
-0.212951
0.0949462
0.39957
0.554155
0.490814
0.239271
-0.0816977
-0.31346
-0.343251
-0.158025
0.15247
0.436631
0.561729
0.475064
0.217864
-0.0848064
-0.277437
-0.260114
-0.0396399
0.27473
0.528034
0.603684
0.470185
0.186779
-0.112276
-0.279614
-0.234404
0.000508965
0.310346
0.549597
0.619921
0.500445
0.245959
-0.0202757
-0.157365
-0.0904034
0.14285
0.412728
0.574356
0.544782
0.334116
0.0429785
-0.180504
-0.224896
-0.0780062
0.17291
0.40016
0.521413
0.540458
0.513101
0.483589
0.447232
0.363551
0.205691
0.00267925
-0.166031
-0.219483
-0.12311
0.0901692
0.326527
0.471282
0.446019
0.248149
-0.040775
-0.290989
-0.394645
-0.31379
-0.0866223
0.191606
0.418687
0.543422
0.578691
0.568808
0.550292
0.532233
0.50309
0.454615
0.400646
0.372078
0.390602
0.443278
0.478696
0.428716
0.248748
-0.0387886
-0.33481
-0.513067
-0.488844
-0.261497
0.0709114
0.3485
0.439797
0.310508
0.0361756
-0.231764
-0.347869
-0.2512
0.0122157
0.318762
0.541467
0.624689
0.594579
0.518897
0.462804
0.455376
0.475845
0.473024
0.411941
0.312166
0.238848
0.25181
0.357873
0.527655
0.554362
0.550806
0.486956
0.367065
0.243392
0.187845
0.240612
0.380028
0.534061
0.622158
0.593552
0.445839
0.234858
0.0606825
0.0134875
0.118189
0.319755
0.515493
0.613792
0.574309
0.415717
0.211613
0.0642045
0.0494356
0.173761
0.372239
0.546342
0.617736
0.558866
0.396928
0.208972
0.0927265
0.111667
0.25669
0.452965
0.605998
0.651703
0.574957
0.408531
0.227921
0.121527
0.140558
0.269326
0.437099
0.562735
0.596505
0.529821
0.391953
0.249471
0.182599
0.235384
0.382461
0.543928
0.635936
0.61364
0.485247
0.310602
0.178962
0.157569
0.245484
0.37296
0.451922
0.442006
0.375549
0.321682
0.325027
0.370505
0.40077
0.369414
0.282806
0.196747
0.176101
0.250913
0.394202
0.529572
0.564582
0.433419
0.137704
-0.230175
-0.523966
-0.62852
-0.510594
-0.221852
0.118428
0.38094
0.501752
0.504369
0.462279
0.444108
0.474503
0.530262
0.569802
0.570511
0.54401
0.520788
0.520896
0.532281
0.510845
0.407707
0.213227
-0.0159249
-0.179113
-0.1907
-0.0344861
0.2131
0.413182
0.439903
0.24738
-0.0976984
-0.435177
-0.600681
-0.515044
-0.213125
0.169644
0.465654
0.574728
0.502961
0.335452
0.187981
0.147697
0.22782
0.3694
0.489233
0.539886
0.532548
0.509835
0.50606
0.364368
0.343546
0.390045
0.460619
0.506826
0.512298
0.4965
0.487311
0.497337
0.521647
0.545627
0.55029
0.519632
0.456942
0.393283
0.367986
0.397187
0.462998
0.530192
0.569586
0.567085
0.523217
0.45697
0.403662
0.393814
0.430533
0.489526
0.539615
0.5612
0.548229
0.505024
0.45007
0.413359
0.416447
0.454788
0.503871
0.541058
0.55733
0.551043
0.522938
0.482906
0.450834
0.440688
0.447382
0.455225
0.456506
0.455285
0.454646
0.450999
0.44518
0.449262
0.473074
0.508457
0.534571
0.536604
0.514268
0.477916
0.445507
0.438361
0.465533
0.504893
0.505041
0.421482
0.263601
0.103843
0.0314977
0.0894143
0.243216
0.405913
0.50174
0.514144
0.481974
0.462497
0.492764
0.566041
0.63138
0.61521
0.456518
0.151699
-0.213212
-0.495322
-0.581453
-0.443776
-0.146402
0.1758
0.383203
0.411918
0.301693
0.161743
0.101187
0.165534
0.319001
0.477454
0.567677
0.570369
0.519618
0.470946
0.461158
0.481631
0.485988
0.431593
0.322906
0.217788
0.188549
0.267036
0.412653
0.527101
0.506012
0.296099
-0.0587148
-0.415973
-0.612664
-0.558273
-0.274416
0.106333
0.400586
0.481443
0.338235
0.0688417
-0.169273
-0.243537
-0.114778
0.151847
0.428696
0.604469
0.641666
0.570397
0.45486
0.0392372
-0.0147105
0.0924249
0.299704
0.503134
0.61971
0.623757
0.537898
0.413736
0.315197
0.291382
0.349518
0.45179
0.542332
0.583175
0.566849
0.506049
0.426547
0.364883
0.354156
0.402206
0.48363
0.556615
0.589361
0.570523
0.505577
0.417602
0.346419
0.330122
0.378996
0.466294
0.546079
0.581156
0.555572
0.474689
0.368749
0.288707
0.279907
0.351172
0.466654
0.56841
0.609538
0.569448
0.455305
0.307025
0.190518
0.163535
0.238514
0.374055
0.502137
0.568719
0.553178
0.465731
0.344003
0.243406
0.211359
0.263196
0.377134
0.507226
0.602806
0.618168
0.51655
0.293582
0.0100544
-0.21931
-0.289668
-0.166273
0.0939994
0.371126
0.55744
0.61748
0.584185
0.521936
0.490095
0.512567
0.563058
0.576709
0.486208
0.271478
-0.00546915
-0.223754
-0.279311
-0.146726
0.10561
0.343375
0.435085
0.325288
0.0691705
-0.1914
-0.311862
-0.229549
0.00974105
0.281783
0.45852
0.483161
0.390172
0.272778
0.22341
0.276421
0.392276
0.494832
0.532033
0.5112
0.482958
0.494133
0.548554
0.59931
0.572309
0.410083
0.123341
-0.187092
-0.380128
-0.360717
-0.135337
0.179643
0.41193
0.430867
0.213942
-0.138818
-0.448097
-0.556934
-0.410179
-0.0715064
0.303804
0.553819
0.599353
0.460681
0.23136
-0.318962
-0.395426
-0.239154
0.0758414
0.400339
0.593375
0.592033
0.419213
0.166621
-0.0379801
-0.0925305
0.0275153
0.259651
0.489294
0.614452
0.590055
0.432347
0.212641
0.0359619
-0.00987819
0.0980287
0.30492
0.507555
0.611355
0.57131
0.401474
0.174104
-0.00325205
-0.0425031
0.0764543
0.293624
0.499765
0.596036
0.536619
0.340482
0.0911522
-0.0926737
-0.119522
0.0260619
0.27441
0.504857
0.610256
0.54188
0.320874
0.0391515
-0.171994
-0.211692
-0.0630028
0.198715
0.443982
0.560684
0.503227
0.299125
0.0391094
-0.157913
-0.203733
-0.0788947
0.163642
0.421688
0.591745
0.606336
0.440544
0.125448
-0.23272
-0.488376
-0.53466
-0.351007
-0.0139317
0.330386
0.549316
0.594346
0.500212
0.350951
0.241279
0.231226
0.315042
0.425907
0.476793
0.419293
0.282057
0.155133
0.128182
0.22934
0.403083
0.536036
0.515932
0.294167
-0.0689301
-0.414807
-0.580053
-0.493295
-0.205342
0.133638
0.353456
0.364521
0.200064
-0.0119339
-0.126081
-0.0658983
0.139759
0.385342
0.561664
0.623362
0.598277
0.548736
0.525929
0.538385
0.546054
0.488715
0.339018
0.141793
-0.00331964
-0.00877046
0.137257
0.351728
0.497627
0.459421
0.205379
-0.17934
-0.520652
-0.656899
-0.523457
-0.176698
0.220699
0.481185
0.497953
0.282895
-0.0469149
-0.548268
-0.637645
-0.458655
-0.0896948
0.295658
0.518726
0.490475
0.236453
-0.116893
-0.393979
-0.461718
-0.289435
0.0423225
0.374504
0.553988
0.507964
0.261126
-0.0722555
-0.331627
-0.393525
-0.229776
0.0814621
0.387682
0.54256
0.476222
0.215509
-0.121465
-0.373001
-0.419485
-0.238777
0.0841911
0.391149
0.534063
0.445604
0.159553
-0.195314
-0.449946
-0.485555
-0.284986
0.0608606
0.386749
0.539371
0.449821
0.153249
-0.216651
-0.483227
-0.522704
-0.319087
0.0309735
0.356955
0.505874
0.415222
0.126607
-0.229311
-0.490061
-0.544835
-0.37389
-0.0471808
0.298899
0.525259
0.550181
0.359635
0.0111915
-0.361398
-0.601705
-0.611722
-0.386812
-0.019002
0.331972
0.523955
0.503068
0.308465
0.0487036
-0.143233
-0.175551
-0.0391064
0.193495
0.407396
0.516061
0.512872
0.460995
0.440097
0.490975
0.587551
0.648806
0.581473
0.335939
-0.0395087
-0.395703
-0.569943
-0.486996
-0.197085
0.14174
0.343835
0.304109
0.053717
-0.257067
-0.445951
-0.405775
-0.152376
0.191879
0.469621
0.584626
0.541767
0.419166
0.316573
0.299414
0.362389
0.441009
0.466212
0.421713
0.356089
0.339759
0.405388
0.517633
0.590208
0.533286
0.306393
-0.037246
-0.356105
-0.500882
-0.400773
-0.100657
0.24824
0.463551
0.431956
0.158138
-0.232572
-0.54665
-0.639454
-0.465819
-0.102507
0.274899
0.480605
0.4177
0.113329
-0.289037
-0.593562
-0.659295
-0.457544
-0.0777354
0.29974
0.495793
0.424448
0.119141
-0.27695
-0.572759
-0.632433
-0.430755
-0.0591234
0.303319
0.481618
0.394099
0.0793103
-0.314608
-0.597103
-0.638129
-0.419121
-0.0379189
0.322528
0.4893
0.386077
0.0571616
-0.344165
-0.626047
-0.661527
-0.435315
-0.0467303
0.320578
0.493548
0.396178
0.072412
-0.325045
-0.603226
-0.634031
-0.405332
-0.022493
0.330128
0.4873
0.383171
0.0661204
-0.318794
-0.595764
-0.649831
-0.464132
-0.114768
0.252867
0.492619
0.524508
0.344708
0.0210968
-0.312049
-0.508533
-0.484231
-0.248203
0.0988031
0.400943
0.525749
0.421385
0.128918
-0.225205
-0.481455
-0.530417
-0.354489
-0.0281213
0.310272
0.535717
0.609104
0.576489
0.52044
0.50787
0.551724
0.602656
0.577728
0.41558
0.135424
-0.148346
-0.292637
-0.221192
0.0255894
0.304352
0.445036
0.346385
0.0329988
-0.34474
-0.591962
-0.585545
-0.329617
0.0496858
0.366327
0.485566
0.391238
0.174869
-0.0187804
-0.0725831
0.0398212
0.250424
0.448387
0.555823
0.570862
0.546599
0.538582
0.564701
0.594522
0.567489
0.434239
0.205916
-0.0289871
-0.152393
-0.093611
0.121646
0.374944
0.517129
0.447214
0.161118
-0.230594
-0.313202
-0.397488
-0.254235
0.0493334
0.359103
0.514023
0.428102
0.124692
-0.263037
-0.550335
-0.60413
-0.40043
-0.0307725
0.32772
0.503253
0.415515
0.101222
-0.294155
-0.580228
-0.625711
-0.411676
-0.0350103
0.323781
0.493708
0.398907
0.0823367
-0.306127
-0.577658
-0.606627
-0.379997
0.000475848
0.353976
0.515577
0.416372
0.101839
-0.28066
-0.547352
-0.576571
-0.356306
0.0142024
0.359798
0.521193
0.431984
0.135683
-0.226372
-0.476252
-0.495598
-0.276872
0.0766628
0.3954
0.53478
0.441024
0.159331
-0.181892
-0.426206
-0.470167
-0.301839
0.00441557
0.318613
0.519413
0.54702
0.405888
0.155656
-0.0956755
-0.232084
-0.188369
0.0191186
0.297155
0.51563
0.56722
0.405155
0.0636557
-0.332262
-0.61783
-0.678635
-0.492365
-0.131927
0.252153
0.509866
0.578534
0.494965
0.356043
0.26583
0.279709
0.374403
0.465829
0.467394
0.35656
0.199685
0.107415
0.154138
0.323108
0.510883
0.586154
0.461667
0.146981
-0.233281
-0.49811
-0.520738
-0.295597
0.0566362
0.345551
0.421348
0.253785
-0.0589191
-0.340807
-0.439324
-0.304673
-0.00212943
0.326614
0.548309
0.614639
0.564524
0.477902
0.426659
0.436393
0.474982
0.481202
0.418766
0.313788
0.239201
0.257817
0.371793
0.514741
0.588692
0.515528
0.279531
-0.0444494
0.0527462
-0.00951277
0.0825068
0.285049
0.489876
0.583452
0.501605
0.257019
-0.0523465
-0.281022
-0.31785
-0.143897
0.158364
0.441332
0.570301
0.485097
0.217172
-0.114137
-0.349453
-0.376224
-0.182403
0.14019
0.436473
0.570297
0.486081
0.221679
-0.10032
-0.322855
-0.338726
-0.140806
0.177059
0.463819
0.592303
0.51404
0.266485
-0.0362365
-0.24794
-0.267576
-0.087482
0.205349
0.471168
0.592643
0.525272
0.303758
0.0328108
-0.1533
-0.162406
0.00808504
0.272548
0.503859
0.603239
0.538793
0.344488
0.108542
-0.0602289
-0.0881897
0.0290196
0.231543
0.42949
0.550616
0.566329
0.484454
0.340534
0.196946
0.124069
0.163568
0.303382
0.480708
0.609923
0.615515
0.454102
0.141291
-0.224227
-0.495802
-0.561326
-0.393534
-0.0619918
0.283961
0.490761
0.485231
0.299133
0.047629
-0.127047
-0.132957
0.0263471
0.260354
0.447701
0.516171
0.483988
0.430661
0.432184
0.508585
0.611784
0.655698
0.565902
0.329298
0.0256301
-0.202129
-0.237216
-0.0642933
0.214421
0.430115
0.442641
0.214463
-0.162685
-0.505168
-0.645448
-0.519356
-0.184034
0.205128
0.476842
0.545007
0.435776
0.252385
0.118502
0.112146
0.226568
0.385625
0.502041
0.538018
0.519581
0.500078
0.514334
0.556754
0.586961
0.552774
0.424325
0.228935
0.394876
0.361293
0.38937
0.471552
0.561813
0.603763
0.55739
0.419257
0.237734
0.0995332
0.0791143
0.190969
0.379577
0.550963
0.624209
0.56389
0.388623
0.172519
0.0202442
0.00961693
0.146426
0.361898
0.55182
0.633302
0.576206
0.405791
0.19862
0.0560838
0.0500515
0.18204
0.384164
0.559617
0.635916
0.589773
0.44473
0.266198
0.140831
0.131236
0.239636
0.408112
0.554514
0.618408
0.5815
0.464358
0.321392
0.223826
0.221577
0.312286
0.444734
0.554096
0.59948
0.573876
0.494922
0.39881
0.330063
0.317635
0.356662
0.415716
0.463335
0.488712
0.497288
0.492571
0.47231
0.442088
0.421368
0.430674
0.475763
0.54244
0.599427
0.603015
0.508962
0.304356
0.0425712
-0.168169
-0.227589
-0.102138
0.150764
0.400829
0.510876
0.407191
0.116117
-0.235242
-0.479385
-0.503242
-0.297113
0.0464087
0.375352
0.569592
0.606273
0.544668
0.472536
0.455195
0.501862
0.564615
0.571654
0.479224
0.314042
0.167668
0.134781
0.242916
0.42614
0.559517
0.52834
0.289628
-0.0884328
-0.441909
-0.606107
-0.507572
-0.193793
0.180795
0.432137
0.453166
0.258945
-0.0300273
-0.248824
-0.279498
-0.10818
0.178944
0.448414
0.60141
0.62114
0.554488
0.470261
0.424418
0.434039
0.470957
0.486283
0.453654
0.594343
0.582112
0.538598
0.497823
0.480645
0.488842
0.503871
0.499874
0.468553
0.430973
0.418885
0.44553
0.496627
0.544958
0.567916
0.552712
0.49829
0.423907
0.368081
0.364409
0.415385
0.49145
0.554441
0.580509
0.563629
0.510546
0.442899
0.394755
0.392306
0.433191
0.489521
0.531919
0.548339
0.54078
0.514654
0.479841
0.454096
0.452284
0.4714
0.493124
0.503115
0.502996
0.501542
0.501434
0.500548
0.500019
0.501382
0.498089
0.480825
0.45412
0.43926
0.455098
0.49915
0.549945
0.583262
0.580672
0.529845
0.434477
0.328455
0.265919
0.284679
0.375489
0.486629
0.561133
0.571303
0.525535
0.458523
0.414527
0.420604
0.462616
0.488581
0.447796
0.339299
0.222757
0.177513
0.245256
0.396218
0.537838
0.560894
0.394224
0.0524107
-0.343319
-0.62162
-0.6621
-0.446332
-0.0637468
0.318136
0.547896
0.573684
0.44447
0.268619
0.15932
0.176158
0.297589
0.441767
0.523795
0.514885
0.457131
0.423769
0.460832
0.552168
0.627029
0.599817
0.420232
0.11992
-0.180348
-0.336851
-0.271858
-0.0195658
0.28245
0.464017
0.416212
0.1439
-0.228618
-0.515743
-0.57814
-0.3871
-0.0284157
0.334896
0.554458
0.575849
0.440768
0.250951
0.12075
0.119789
0.239451
0.407323
0.539614
0.632336
0.62115
0.495719
0.332551
0.217761
0.207319
0.298772
0.437425
0.554192
0.60645
0.58834
0.517197
0.425158
0.354283
0.339127
0.385106
0.46421
0.535222
0.570036
0.560592
0.510976
0.437166
0.370732
0.346932
0.380963
0.455425
0.532223
0.577022
0.571603
0.512629
0.415867
0.321603
0.279072
0.314707
0.412453
0.523409
0.59608
0.599122
0.525955
0.398922
0.272021
0.209462
0.24671
0.36641
0.507891
0.602919
0.607238
0.511279
0.346485
0.185378
0.110718
0.166369
0.32885
0.518837
0.645491
0.6477
0.509939
0.273181
0.0359736
-0.0884876
-0.0385679
0.157934
0.396694
0.558809
0.576194
0.45415
0.263519
0.110625
0.0794759
0.181383
0.35044
0.49001
0.541499
0.518259
0.480521
0.483839
0.538961
0.601172
0.591245
0.438443
0.135603
-0.225038
-0.490915
-0.542208
-0.352532
-0.00458084
0.337054
0.51542
0.465028
0.230234
-0.0585416
-0.248186
-0.245016
-0.0556276
0.224008
0.464028
0.580913
0.577096
0.516205
0.472449
0.485447
0.537743
0.56714
0.509857
0.354024
0.164957
0.0494582
0.0819429
0.249771
0.45214
0.554084
0.457591
0.15449
-0.247255
-0.566841
-0.658475
-0.482272
-0.117052
0.264651
0.4878
0.471384
0.251431
-0.0433122
-0.251463
-0.264602
-0.0769398
0.220194
0.490497
0.570777
0.534876
0.31969
0.0421358
-0.154917
-0.17413
-0.00868203
0.259356
0.503763
0.623909
0.583928
0.410215
0.181988
0.00652608
-0.0325128
0.0818764
0.292215
0.497299
0.607402
0.580624
0.42754
0.210086
0.0262733
-0.0360334
0.0541079
0.253901
0.467176
0.595761
0.583345
0.428782
0.190131
-0.0269587
-0.118839
-0.0397666
0.174028
0.419717
0.581878
0.588243
0.430764
0.170203
-0.0763857
-0.190537
-0.116218
0.111957
0.382654
0.565264
0.574919
0.40027
0.109787
-0.163805
-0.287698
-0.200324
0.0591551
0.365588
0.570875
0.57762
0.371441
0.0304921
-0.291342
-0.440823
-0.34788
-0.0585823
0.281014
0.502064
0.505731
0.299774
-0.00823472
-0.256488
-0.316824
-0.160374
0.134523
0.427273
0.603392
0.637149
0.579429
0.508942
0.484675
0.511451
0.535492
0.479688
0.305055
0.0578444
-0.146702
-0.198617
-0.0623447
0.196331
0.436649
0.518851
0.37572
0.0471597
-0.324138
-0.56464
-0.567236
-0.33245
0.0349498
0.37068
0.546542
0.53618
0.404788
0.262541
0.205131
0.261732
0.384327
0.485995
0.505284
0.450783
0.38902
0.388838
0.468027
0.577357
0.627119
0.534452
0.273925
-0.0821292
-0.382722
-0.488088
-0.348574
-0.0313868
0.300868
0.475142
0.40056
0.105744
-0.268138
-0.534342
-0.564854
-0.344236
0.0292509
0.384101
0.49913
0.420231
0.126119
-0.236231
-0.487082
-0.508636
-0.291174
0.0667907
0.398222
0.55702
0.484804
0.219458
-0.116886
-0.365713
-0.413135
-0.239021
0.0768675
0.386355
0.549703
0.499788
0.256848
-0.075099
-0.344195
-0.427854
-0.288702
0.0119514
0.334202
0.528526
0.508946
0.278896
-0.0665044
-0.369928
-0.492079
-0.378399
-0.0780089
0.269673
0.500404
0.509848
0.290336
-0.0652099
-0.391838
-0.536942
-0.435374
-0.131553
0.232104
0.480599
0.498619
0.274271
-0.0958714
-0.437795
-0.59062
-0.486131
-0.170486
0.207674
0.464555
0.478983
0.240401
-0.145511
-0.492743
-0.633519
-0.501956
-0.157622
0.231248
0.470994
0.448718
0.176393
-0.213306
-0.524233
-0.605576
-0.420296
-0.0522911
0.328446
0.563668
0.596982
0.477636
0.31515
0.220466
0.244823
0.352434
0.449953
0.457039
0.367972
0.253937
0.207386
0.27536
0.424374
0.555246
0.556804
0.364025
0.00521418
-0.385485
-0.636954
-0.641341
-0.397412
-0.0132432
0.331979
0.487835
0.412009
0.176324
-0.0734923
-0.195117
-0.125755
0.0941662
0.351332
0.531671
0.590542
0.56234
0.517383
0.51105
0.550688
0.591434
0.562817
0.417811
0.181952
-0.0422749
-0.136663
-0.0450146
0.186878
0.428033
0.532502
0.413627
0.0875014
-0.315002
-0.607642
-0.657049
-0.440775
-0.0549886
0.316252
0.484633
0.364818
0.028764
-0.368603
-0.637585
-0.657392
-0.41914
-0.0271194
0.33456
0.498542
0.395912
0.0735812
-0.319432
-0.598412
-0.640476
-0.428777
-0.0548121
0.308764
0.49526
0.425352
0.128201
-0.26482
-0.572436
-0.65923
-0.489322
-0.133446
0.246981
0.475625
0.451955
0.184298
-0.210596
-0.549558
-0.680078
-0.547382
-0.206382
0.188467
0.451091
0.463106
0.218647
-0.173455
-0.527891
-0.680974
-0.566969
-0.233968
0.165677
0.441523
0.468106
0.234613
-0.152904
-0.509404
-0.668789
-0.563143
-0.239668
0.150625
0.41927
0.443473
0.217537
-0.147165
-0.465942
-0.578922
-0.429411
-0.083802
0.290151
0.507127
0.461464
0.166443
-0.24488
-0.573474
-0.665248
-0.480796
-0.105091
0.281012
0.498985
0.474693
0.259411
-0.00601575
-0.16474
-0.13024
0.0728978
0.331222
0.518063
0.576695
0.540473
0.488109
0.484003
0.537615
0.59743
0.580018
0.419282
0.120825
-0.212944
-0.433474
-0.437559
-0.221097
0.112238
0.391564
0.470985
0.304507
-0.0317565
-0.369137
-0.53925
-0.463331
-0.177063
0.188159
0.474146
0.590834
0.549929
0.431912
0.334882
0.322213
0.388661
0.469091
0.487837
0.418636
0.30885
0.244381
0.284479
0.416643
0.559963
0.6099
0.490767
0.199964
-0.164706
-0.442347
-0.504314
-0.321404
0.0191258
0.343807
0.536713
0.401815
0.0801002
-0.293203
-0.544688
-0.560424
-0.333063
0.0348807
0.367359
0.506969
0.389612
0.0628943
-0.324896
-0.591947
-0.620337
-0.398842
-0.0234568
0.333146
0.509195
0.430926
0.130901
-0.258414
-0.557189
-0.63354
-0.456153
-0.0996584
0.274943
0.497281
0.473859
0.216022
-0.162548
-0.485479
-0.605846
-0.472375
-0.141906
0.235134
0.483839
0.496513
0.270162
-0.093735
-0.423052
-0.563702
-0.453745
-0.141462
0.228946
0.48446
0.515193
0.313549
-0.0274006
-0.345133
-0.489761
-0.398197
-0.114516
0.226108
0.462441
0.494186
0.320321
0.0336435
-0.21569
-0.29646
-0.163765
0.121421
0.419336
0.584162
0.533439
0.274966
-0.085892
-0.380492
-0.468423
-0.310201
0.0137305
0.332094
0.473954
0.362685
0.0511121
-0.299528
-0.505991
-0.464985
-0.194415
0.179336
0.490525
0.63823
0.628404
0.537225
0.455674
0.440586
0.484185
0.52135
0.475151
0.317895
0.105995
-0.0489066
-0.054315
0.102543
0.339519
0.517603
0.514031
0.284055
-0.103154
-0.479343
-0.672351
-0.599706
-0.294326
0.105043
0.416317
0.520847
0.415726
0.195223
-0.000444353
-0.0592669
0.044651
0.246783
0.43805
0.537609
0.540363
0.501989
0.486796
0.522993
0.587306
0.619315
0.554466
0.367377
0.108825
-0.105882
-0.16644
-0.0374997
0.214834
0.451766
0.602125
0.492371
0.24573
-0.0439736
-0.242538
-0.253473
-0.069773
0.220521
0.475084
0.57269
0.465133
0.190546
-0.131363
-0.349217
-0.361849
-0.163829
0.154358
0.445631
0.582702
0.511953
0.262074
-0.0599234
-0.305772
-0.362668
-0.205907
0.0936992
0.398772
0.575606
0.556153
0.352088
0.051557
-0.206398
-0.300374
-0.187541
0.0797487
0.376272
0.568124
0.578335
0.407154
0.129744
-0.124282
-0.232825
-0.145108
0.0964119
0.376281
0.567305
0.594484
0.454893
0.212914
-0.0177903
-0.126534
-0.0639577
0.135733
0.373628
0.54077
0.574335
0.47564
0.302114
0.14599
0.0908544
0.167129
0.337343
0.517483
0.620926
0.593321
0.429038
0.18594
-0.0237408
-0.0916911
0.0197876
0.248832
0.458167
0.5072
0.326393
-0.0376071
-0.425683
-0.652982
-0.614323
-0.324098
0.087849
0.435405
0.589675
0.539155
0.366518
0.196734
0.133026
0.202238
0.345856
0.463545
0.484974
0.418108
0.335945
0.31867
0.39679
0.528339
0.62036
0.577794
0.354328
-0.00325266
-0.353358
-0.538269
-0.476065
-0.196736
0.163729
0.424723
0.462017
0.265513
-0.060295
-0.34453
-0.444377
-0.315095
-0.0189239
0.308399
0.53567
0.611368
0.568799
0.483073
0.426359
0.432729
0.482186
0.516264
0.481573
0.376383
0.260816
0.214943
0.279122
0.422828
0.561009
0.594392
0.548973
0.424846
0.263872
0.14567
0.137215
0.247711
0.421434
0.570666
0.623404
0.550435
0.373177
0.165177
0.0257108
0.024695
0.162865
0.372525
0.555945
0.63742
0.588941
0.429758
0.225113
0.0689277
0.0365773
0.142682
0.334245
0.520897
0.624877
0.611822
0.491273
0.313507
0.15976
0.105276
0.176418
0.336024
0.505754
0.611517
0.616175
0.52278
0.370939
0.23017
0.170073
0.219942
0.351554
0.497963
0.594978
0.610974
0.54787
0.434625
0.32256
0.265414
0.288538
0.374468
0.477489
0.554489
0.584816
0.56809
0.517464
0.457353
0.414828
0.405969
0.430917
0.478337
0.528526
0.552783
0.522945
0.438443
0.343551
0.303792
0.356292
0.475121
0.576937
0.562704
0.371468
0.0308875
-0.328904
-0.543571
-0.513013
-0.249039
0.122798
0.419003
0.505361
0.362885
0.0844238
-0.172634
-0.27055
-0.161766
0.0954356
0.37295
0.553506
0.600711
0.559018
0.505424
0.498721
0.546531
0.601788
0.589931
0.455261
0.210279
-0.0488604
-0.194501
-0.149097
0.0666978
0.33667
0.506295
0.464088
0.195416
-0.197555
-0.535169
-0.664316
-0.531994
-0.195475
0.196981
0.480328
0.567877
0.476615
0.295702
0.141133
0.0992056
0.183739
0.336866
0.471372
0.530214
0.51933
0.488151
0.4838
0.519375
0.57096
0.440673
0.487166
0.510157
0.495401
0.464408
0.450935
0.470234
0.510929
0.549355
0.565224
0.546258
0.491671
0.421045
0.371382
0.37253
0.423472
0.494173
0.549725
0.571284
0.556133
0.509762
0.448172
0.400145
0.392098
0.426778
0.480631
0.524056
0.542672
0.537957
0.515138
0.480952
0.450144
0.44084
0.458112
0.487362
0.508591
0.514784
0.512012
0.505653
0.495652
0.484758
0.4809
0.486369
0.491484
0.486343
0.475896
0.475613
0.492558
0.517164
0.534134
0.534637
0.515923
0.479338
0.437747
0.418018
0.443186
0.508443
0.57784
0.606399
0.566485
0.463048
0.338565
0.258259
0.269586
0.365016
0.484833
0.563245
0.577801
0.556548
0.544474
0.563422
0.591303
0.570386
0.443835
0.208616
-0.0547001
-0.22052
-0.199895
0.00183789
0.27711
0.467689
0.452974
0.213002
-0.153463
-0.471062
-0.588245
-0.451249
-0.118511
0.26216
0.534598
0.626733
0.566259
0.439704
0.343588
0.336046
0.407235
0.489771
0.505962
0.426049
0.295465
0.204595
0.224005
0.353912
0.518092
0.60386
0.519239
0.241575
-0.147865
-0.486575
-0.62615
-0.509147
-0.187392
0.191219
0.452739
0.493915
0.320258
0.0327656
-0.216478
-0.302841
-0.189041
0.0679687
0.350349
0.547261
0.615222
0.57953
0.498149
0.429673
0.410552
0.133176
0.281091
0.453313
0.577556
0.620886
0.589252
0.508261
0.414044
0.347621
0.338503
0.387251
0.46496
0.533393
0.567612
0.559646
0.510629
0.433041
0.35745
0.322149
0.348173
0.423273
0.510147
0.57094
0.583319
0.539777
0.449054
0.344447
0.276236
0.282258
0.361719
0.474887
0.568565
0.603979
0.565652
0.46225
0.332442
0.237127
0.226773
0.308882
0.442287
0.562298
0.615912
0.579034
0.459673
0.303454
0.184331
0.165915
0.261067
0.421711
0.566352
0.625256
0.568653
0.415158
0.233615
0.119293
0.138465
0.282599
0.467929
0.58252
0.548605
0.36327
0.109576
-0.0776993
-0.0931749
0.0714118
0.323842
0.534675
0.622559
0.591273
0.505728
0.441862
0.436989
0.466444
0.466823
0.394514
0.272388
0.178879
0.187489
0.307789
0.468356
0.552237
0.460696
0.171858
-0.223903
-0.556305
-0.677054
-0.533404
-0.183965
0.215759
0.491225
0.550132
0.412114
0.18103
-0.0059352
-0.0479432
0.0701634
0.277656
0.463995
0.55107
0.53806
0.485216
0.462578
0.502875
0.581155
0.628386
0.568301
0.363893
0.0600781
-0.219828
-0.345419
-0.256331
0.00545639
0.307836
0.49354
0.461458
0.208424
-0.162343
-0.480594
-0.603283
-0.480948
-0.165775
0.207267
0.485993
0.585707
0.512744
0.338157
0.164865
0.084251
-0.238985
-0.0057082
0.292247
0.529271
0.623054
0.557757
0.372793
0.151429
-0.00567483
-0.0274042
0.0939827
0.300103
0.496315
0.600952
0.575205
0.425916
0.207375
0.0120344
-0.0708073
-0.00140811
0.190092
0.416042
0.576285
0.605099
0.487569
0.263254
0.0244928
-0.119748
-0.101252
0.0730246
0.322058
0.530296
0.606967
0.518691
0.29567
0.0308423
-0.153494
-0.169639
-0.00868239
0.254004
0.493781
0.601885
0.530246
0.302505
0.0145953
-0.19822
-0.232711
-0.0710913
0.208948
0.469104
0.584007
0.498775
0.246802
-0.0537656
-0.249285
-0.238531
-0.0302242
0.257565
0.45751
0.447816
0.218248
-0.116953
-0.373279
-0.407711
-0.202497
0.128258
0.408301
0.512336
0.432233
0.26131
0.129695
0.124762
0.241673
0.39748
0.500001
0.516933
0.486848
0.47422
0.51375
0.581139
0.603967
0.503236
0.248537
-0.0965669
-0.390262
-0.498313
-0.369337
-0.059945
0.280424
0.484073
0.456604
0.2151
-0.120164
-0.381078
-0.442649
-0.278337
0.0363435
0.359648
0.566316
0.617077
0.555537
0.464091
0.417148
0.442259
0.506296
0.537679
0.475692
0.320974
0.147297
0.0557516
0.106928
0.279783
0.477648
0.578248
0.492798
0.207725
-0.188202
-0.530717
-0.674496
-0.56352
-0.243838
0.145877
0.434735
0.513528
0.37441
0.0996418
-0.170579
-0.303817
-0.527288
-0.246762
0.127183
0.431791
0.546052
0.437464
0.160075
-0.160982
-0.38004
-0.402044
-0.21838
0.0910634
0.387765
0.544202
0.498508
0.265447
-0.063442
-0.345982
-0.459012
-0.354103
-0.0733264
0.260433
0.498216
0.539505
0.364734
0.0401793
-0.294231
-0.488647
-0.458749
-0.215865
0.133602
0.428823
0.537944
0.413551
0.103865
-0.255233
-0.498359
-0.517186
-0.302628
0.0513028
0.379517
0.530562
0.437239
0.135418
-0.240742
-0.513987
-0.559104
-0.355655
0.00476401
0.348247
0.508287
0.409735
0.0955901
-0.282122
-0.532399
-0.533538
-0.290212
0.0669208
0.339213
0.374611
0.154083
-0.196937
-0.475212
-0.523634
-0.320322
0.0130676
0.281216
0.339835
0.181326
-0.0724474
-0.250318
-0.235601
-0.0278797
0.265292
0.504194
0.611003
0.600709
0.543793
0.509978
0.523647
0.549467
0.517873
0.379911
0.159062
-0.0470704
-0.128099
-0.0332167
0.193551
0.428185
0.530523
0.415682
0.0975354
-0.299747
-0.597904
-0.667003
-0.478863
-0.111513
0.274399
0.521106
0.562481
0.435771
0.24564
0.112081
0.10905
0.228442
0.391873
0.503883
0.516705
0.457169
0.397504
0.400615
0.478204
0.582516
0.631733
0.549752
0.308219
-0.0351574
-0.345486
-0.487717
-0.400562
-0.122338
0.216903
0.453696
0.476134
0.26752
-0.0865122
-0.425239
-0.595898
-0.612528
-0.327307
0.0609328
0.37632
0.480961
0.334142
-0.00038122
-0.372412
-0.614871
-0.627196
-0.404369
-0.0370961
0.313428
0.495287
0.435718
0.156492
-0.228144
-0.549917
-0.672718
-0.547839
-0.222719
0.164496
0.440973
0.488866
0.287467
-0.081968
-0.455963
-0.668184
-0.630819
-0.357626
0.0360179
0.370322
0.494959
0.356595
0.0123846
-0.382665
-0.646526
-0.665237
-0.430182
-0.0405712
0.323985
0.494911
0.397211
0.0715616
-0.33367
-0.626875
-0.676394
-0.460423
-0.0726571
0.302815
0.485351
0.391686
0.0652611
-0.334727
-0.607313
-0.622468
-0.377652
0.00122608
0.312993
0.398921
0.232869
-0.0720777
-0.327825
-0.384931
-0.220909
0.0486371
0.238619
0.214201
-0.0213591
-0.328623
-0.52153
-0.480438
-0.211801
0.156897
0.453153
0.570607
0.516508
0.380948
0.275622
0.269493
0.351964
0.447891
0.47694
0.416547
0.317999
0.26472
0.310094
0.437975
0.56709
0.59369
0.443986
0.121326
-0.267406
-0.557288
-0.623722
-0.439241
-0.0830981
0.280381
0.485665
0.456021
0.22812
-0.0699054
-0.279967
-0.29762
-0.117172
0.173493
0.441439
0.589879
0.606918
0.547232
0.485521
0.474571
0.518158
0.56964
0.558372
0.435042
0.216905
-0.00543872
-0.120319
-0.0646128
0.138173
0.383863
0.538994
0.5054
0.2598
-0.122924
-0.485525
-0.673452
-0.458726
-0.205722
0.138957
0.412255
0.486609
0.323228
-0.0158883
-0.382405