# vtk DataFile Version 3.0
PFC simulation results
ASCII
DATASET STRUCTURED_POINTS
DIMENSIONS 128 128 1
ORIGIN 0 0 0
SPACING 1 1 1
POINT_DATA 16384
SCALARS psi double
LOOKUP_TABLE default
0.316347
0.501546
0.440035
0.148411
-0.243296
-0.544399
-0.609904
-0.409084
-0.0353787
0.330665
0.519609
0.457469
0.180963
-0.178163
-0.447717
-0.505317
-0.332723
-0.0194614
0.274422
0.401686
0.301911
0.0232689
-0.298515
-0.50942
-0.520368
-0.343236
-0.0804156
0.123169
0.158811
0.0136001
-0.226033
-0.425015
-0.475524
-0.34923
-0.107569
0.126768
0.233437
0.156145
-0.0732236
-0.350456
-0.550897
-0.587058
-0.433851
-0.133411
0.210927
0.476575
0.577419
0.483284
0.22278
-0.104126
-0.350239
-0.399836
-0.235989
0.0464248
0.287073
0.349955
0.195934
-0.097196
-0.371941
-0.481399
-0.368501
-0.0848301
0.242684
0.488992
0.599507
0.585327
0.475646
0.295245
0.0752512
-0.13942
-0.303862
-0.389739
-0.386941
-0.297121
-0.132841
0.0770648
0.287564
0.451162
0.537985
0.547913
0.508257
0.459029
0.432404
0.435915
0.448923
0.436971
0.376788
0.274709
0.164897
0.0882137
0.0672367
0.0951978
0.142836
0.174599
0.165065
0.109855
0.0261057
-0.0596231
-0.129321
-0.183495
-0.23426
-0.28711
-0.327197
-0.322879
-0.24581
-0.0944986
0.0958461
0.269036
0.38186
0.429198
0.440294
0.4511
0.474071
0.488994
0.465207
0.398868
0.329097
0.311881
0.371694
0.471487
0.525977
0.449757
0.213871
-0.115048
-0.393762
-0.486185
-0.340956
-0.0210396
0.431029
0.555011
0.482334
0.221517
-0.123425
-0.390372
-0.449769
-0.272941
0.0532812
0.363035
0.500434
0.395212
0.08524
-0.291641
-0.558794
-0.597486
-0.397457
-0.0570348
0.255457
0.38968
0.290058
0.0141543
-0.294849
-0.482507
-0.466555
-0.269476
-0.00220269
0.190414
0.208342
0.0496331
-0.190938
-0.375067
-0.398136
-0.240654
0.0256035
0.273427
0.386318
0.312049
0.0786925
-0.21719
-0.45235
-0.532768
-0.424553
-0.161305
0.161438
0.42564
0.546699
0.495426
0.296874
0.0361618
-0.160048
-0.188945
-0.0354188
0.213119
0.411192
0.434654
0.243732
-0.090353
-0.409313
-0.5556
-0.458675
-0.161875
0.202205
0.488139
0.6184
0.590022
0.43235
0.187872
-0.0811216
-0.301233
-0.41833
-0.417004
-0.313928
-0.140975
0.06527
0.265381
0.417835
0.486507
0.45571
0.344596
0.206679
0.107434
0.0928612
0.167588
0.292267
0.406105
0.46462
0.463072
0.430187
0.403607
0.405258
0.429887
0.451343
0.44019
0.381027
0.281067
0.166392
0.0663115
-0.00621579
-0.0633575
-0.131081
-0.224296
-0.327235
-0.395736
-0.382614
-0.270911
-0.0936411
0.0780245
0.177486
0.186183
0.143863
0.118932
0.160784
0.268232
0.395565
0.491
0.536297
0.552198
0.568364
0.589872
0.587301
0.514373
0.345282
0.113288
-0.0877663
-0.156503
-0.0494668
0.186391
0.528858
0.586406
0.530144
0.356429
0.123832
-0.0608109
-0.102002
0.0248029
0.25434
0.462911
0.534984
0.41663
0.138431
-0.184253
-0.401557
-0.413504
-0.218099
0.0897239
0.361338
0.47398
0.389759
0.164044
-0.0804719
-0.214958
-0.174776
0.0110256
0.239822
0.391493
0.392521
0.250443
0.0481241
-0.0986991
-0.104792
0.0397168
0.267528
0.473108
0.568316
0.515883
0.333874
0.0895292
-0.122796
-0.222212
-0.174009
-0.000669045
0.226898
0.422656
0.525271
0.512421
0.39857
0.238671
0.118955
0.113742
0.235596
0.420594
0.561265
0.562579
0.387243
0.084198
-0.217009
-0.373344
-0.311633
-0.0647122
0.248645
0.49491
0.599381
0.555213
0.390444
0.153386
-0.0850508
-0.248286
-0.288874
-0.207093
-0.0406745
0.158654
0.343874
0.477935
0.52925
0.471694
0.300979
0.0577763
-0.174089
-0.305817
-0.285721
-0.120124
0.125799
0.357384
0.504524
0.554668
0.542597
0.519017
0.520111
0.550002
0.584025
0.589262
0.547449
0.466161
0.373549
0.299955
0.256277
0.224176
0.168274
0.0643806
-0.0757663
-0.202928
-0.257381
-0.209383
-0.086602
0.0340219
0.0724701
0.00109103
-0.131594
-0.228924
-0.207516
-0.0479352
0.194262
0.42324
0.564967
0.605917
0.581408
0.539026
0.506459
0.477889
0.428205
0.347926
0.266418
0.235629
0.287825
0.405791
0.504229
0.505305
0.492499
0.446005
0.368195
0.296397
0.279815
0.33926
0.447018
0.54164
0.561788
0.474038
0.291948
0.0849812
-0.0485848
-0.040064
0.108151
0.32363
0.504238
0.574528
0.517725
0.375059
0.227525
0.157757
0.20362
0.337699
0.486754
0.575643
0.565784
0.468972
0.339852
0.25033
0.250841
0.341757
0.476539
0.593353
0.648352
0.626101
0.534123
0.400692
0.271384
0.191797
0.185073
0.2421
0.330727
0.416409
0.476331
0.497789
0.475888
0.423431
0.376554
0.376349
0.438149
0.536542
0.616875
0.621073
0.51491
0.315516
0.101428
-0.0247651
-0.00218641
0.149362
0.344384
0.489634
0.536562
0.485195
0.360048
0.199376
0.0560892
-0.0154536
0.0134428
0.130502
0.292622
0.450625
0.567878
0.62018
0.583823
0.434116
0.170138
-0.152897
-0.430665
-0.563273
-0.50247
-0.268384
0.0507775
0.333133
0.490275
0.508651
0.439387
0.361437
0.338711
0.388924
0.481267
0.562512
0.593274
0.56986
0.520294
0.48178
0.473695
0.4823
0.469491
0.401676
0.27897
0.143178
0.0550735
0.0522145
0.115779
0.173228
0.141551
-0.0132855
-0.240718
-0.426478
-0.461324
-0.305566
-0.0147799
0.285196
0.473855
0.505888
0.421062
0.308008
0.250645
0.281709
0.372254
0.463724
0.515444
0.525947
0.516492
0.506526
0.303908
0.261719
0.310492
0.408943
0.497074
0.540379
0.542569
0.525158
0.506633
0.495619
0.488577
0.470363
0.427597
0.369701
0.330626
0.341662
0.403581
0.485867
0.550179
0.57403
0.556736
0.51416
0.473233
0.460893
0.486394
0.533876
0.575355
0.591125
0.578773
0.548839
0.517712
0.501287
0.506042
0.522847
0.534697
0.534353
0.530942
0.53651
0.550061
0.55833
0.549638
0.521738
0.476742
0.417936
0.358161
0.323925
0.338955
0.400179
0.474177
0.521904
0.5273
0.502874
0.475237
0.467529
0.485318
0.51015
0.509228
0.462265
0.385793
0.32539
0.31638
0.352333
0.393598
0.404926
0.381236
0.339371
0.296347
0.262476
0.249284
0.271603
0.33529
0.426369
0.517748
0.586933
0.624134
0.621558
0.55745
0.399569
0.139047
-0.172062
-0.429453
-0.534394
-0.444205
-0.190489
0.124393
0.368641
0.450874
0.363098
0.177534
0.00820164
-0.049878
0.0323726
0.211073
0.399516
0.521274
0.551928
0.521508
0.486078
0.48946
0.535155
0.586875
0.598029
0.548156
0.459937
0.384343
0.362327
0.388844
0.406767
0.339565
0.146604
-0.132207
-0.382505
-0.481006
-0.370742
-0.0997416
0.194932
0.36577
0.344008
0.172141
-0.0258258
-0.117551
-0.0383447
0.177908
0.425392
0.595609
0.636829
0.561171
0.424558
-0.0284332
-0.101238
0.0121661
0.247662
0.484531
0.621321
0.623833
0.5198
0.376232
0.271953
0.258657
0.333062
0.445119
0.53709
0.578681
0.568868
0.520245
0.454315
0.401964
0.391702
0.431053
0.499856
0.563592
0.593306
0.574987
0.512395
0.430668
0.36998
0.363842
0.417424
0.502712
0.573915
0.590329
0.53231
0.412753
0.281748
0.206353
0.230759
0.348377
0.504663
0.628182
0.665976
0.597297
0.436668
0.242059
0.10226
0.0875414
0.201745
0.377058
0.517072
0.554654
0.480615
0.340034
0.209869
0.158503
0.207244
0.322963
0.444457
0.522994
0.544355
0.514826
0.438891
0.323478
0.197157
0.107682
0.0938006
0.159634
0.273625
0.392131
0.485109
0.540141
0.553325
0.529693
0.489433
0.459652
0.450375
0.436358
0.368147
0.214705
0.00504421
-0.175832
-0.238805
-0.144133
0.0741606
0.316225
0.460919
0.426297
0.211108
-0.0947141
-0.348566
-0.434777
-0.320879
-0.0648978
0.213187
0.396724
0.437754
0.371764
0.284895
0.259472
0.326091
0.451664
0.569074
0.625779
0.616471
0.578495
0.557768
0.570027
0.583088
0.534091
0.375347
0.123251
-0.129571
-0.263467
-0.210097
-0.00382925
0.226382
0.330444
0.229488
-0.034056
-0.314482
-0.448812
-0.351502
-0.0566004
0.297826
0.548017
0.597888
0.450729
0.195519
-0.359284
-0.448974
-0.285891
0.0497736
0.391439
0.583203
0.560842
0.361437
0.0994015
-0.0831715
-0.0907679
0.0773152
0.332382
0.551329
0.646575
0.594245
0.425599
0.217111
0.0662032
0.0441115
0.157953
0.345798
0.509805
0.568894
0.492673
0.310299
0.103415
-0.0288902
-0.0216652
0.122683
0.33274
0.501805
0.542184
0.422778
0.183761
-0.0703481
-0.218712
-0.18829
0.013197
0.299401
0.544209
0.644977
0.559682
0.315526
0.0141934
-0.200603
-0.223097
-0.0477646
0.225727
0.447987
0.505974
0.374341
0.11922
-0.130943
-0.252292
-0.19014
0.0237949
0.293879
0.511836
0.609386
0.56748
0.398926
0.150872
-0.0891575
-0.22443
-0.198768
-0.0242498
0.223888
0.447333
0.576109
0.58636
0.490014
0.33098
0.180029
0.105446
0.134043
0.231985
0.322572
0.339489
0.277375
0.193987
0.165378
0.233478
0.37755
0.520336
0.564713
0.440529
0.147268
-0.221208
-0.51268
-0.606166
-0.471983
-0.179303
0.129731
0.311703
0.303065
0.147685
-0.0353356
-0.12277
-0.0559637
0.13595
0.361989
0.528098
0.593187
0.581474
0.551433
0.549781
0.57753
0.589221
0.528976
0.38162
0.200457
0.0809684
0.0927854
0.221614
0.366003
0.395467
0.232389
-0.0882622
-0.420768
-0.593126
-0.509125
-0.197435
0.192695
0.467215
0.499578
0.284918
-0.0628954
-0.541333
-0.634563
-0.44792
-0.068686
0.313827
0.512768
0.445549
0.158646
-0.195205
-0.429998
-0.42737
-0.188687
0.169345
0.473512
0.591398
0.484484
0.206326
-0.114513
-0.327703
-0.337638
-0.145374
0.150993
0.400349
0.479045
0.347103
0.0607773
-0.246885
-0.430827
-0.40738
-0.186121
0.13071
0.388607
0.460625
0.305581
-0.0153158
-0.356512
-0.560393
-0.536629
-0.29013
0.0786863
0.406931
0.551935
0.454309
0.15397
-0.21164
-0.461977
-0.474215
-0.245852
0.102456
0.385453
0.45849
0.286049
-0.0500602
-0.385711
-0.561437
-0.501968
-0.234234
0.128828
0.438977
0.588256
0.539071
0.31016
-0.0222525
-0.328765
-0.481661
-0.418082
-0.164663
0.171204
0.451953
0.580303
0.525629
0.314562
0.028937
-0.212268
-0.307373
-0.220017
0.00547856
0.262422
0.443906
0.509601
0.494638
0.467561
0.481913
0.54513
0.613559
0.614074
0.482101
0.207493
-0.132191
-0.398726
-0.477353
-0.340909
-0.0630685
0.209397
0.330278
0.234503
-0.0266866
-0.310709
-0.465953
-0.415355
-0.184428
0.117674
0.357674
0.457095
0.428372
0.349841
0.308964
0.346777
0.436598
0.510684
0.51573
0.456709
0.392978
0.38768
0.451376
0.524488
0.510864
0.340586
0.0308614
-0.29762
-0.485447
-0.433154
-0.159748
0.194373
0.437169
0.434902
0.176695
-0.215772
-0.495443
-0.581061
-0.398678
-0.0354968
0.321016
0.484759
0.371499
0.0323698
-0.363646
-0.615649
-0.602542
-0.330556
0.0706529
0.404052
0.514903
0.359454
0.0103373
-0.3678
-0.597302
-0.578974
-0.325678
0.0418097
0.341963
0.429264
0.262591
-0.0822743
-0.441419
-0.646927
-0.609783
-0.344897
0.0311395
0.340962
0.439277
0.280726
-0.0656601
-0.439781
-0.670631
-0.66067
-0.410967
-0.0227961
0.329602
0.487565
0.384585
0.0675894
-0.310829
-0.559269
-0.554135
-0.297677
0.0816383
0.388714
0.472093
0.294272
-0.0612437
-0.423897
-0.62466
-0.579735
-0.310444
0.0694143
0.401381
0.564222
0.513131
0.268944
-0.0816971
-0.396339
-0.540289
-0.452914
-0.170156
0.186867
0.467607
0.566636
0.450479
0.15413
-0.214452
-0.50515
-0.600474
-0.463344
-0.146394
0.220908
0.498682
0.620019
0.607078
0.531584
0.470547
0.468746
0.515746
0.552343
0.50707
0.348112
0.120678
-0.0687431
-0.120358
-0.00564992
0.211685
0.403655
0.444056
0.275208
-0.0535291
-0.397027
-0.595396
-0.564626
-0.328729
-0.0070119
0.242551
0.315241
0.215973
0.0449588
-0.0681638
-0.0423784
0.114953
0.323793
0.488179
0.560161
0.561391
0.549081
0.562622
0.591066
0.57894
0.466584
0.24576
-0.00872919
-0.172813
-0.15423
0.0427631
0.307709
0.481911
0.447851
0.189634
-0.186541
-0.240137
-0.307874
-0.156731
0.137238
0.414852
0.521037
0.384384
0.0504469
-0.326057
-0.559069
-0.537228
-0.271463
0.109069
0.414131
0.496866
0.31882
-0.0412242
-0.412747
-0.61938
-0.570693
-0.290797
0.0906391
0.391453
0.47392
0.305134
-0.0362544
-0.38791
-0.584654
-0.540491
-0.274191
0.0966649
0.401709
0.507227
0.373494
0.061598
-0.285679
-0.509352
-0.512927
-0.294494
0.0514056
0.364973
0.502827
0.405777
0.117984
-0.221062
-0.437268
-0.418906
-0.172354
0.180408
0.464013
0.548393
0.402872
0.0969204
-0.225271
-0.413709
-0.388421
-0.165944
0.153166
0.432197
0.568253
0.523249
0.314867
0.0170008
-0.247928
-0.362241
-0.273576
-0.0187769
0.290125
0.520005
0.577813
0.430558
0.110173
-0.273637
-0.566678
-0.650676
-0.49122
-0.147016
0.241296
0.519948
0.609656
0.526807
0.354521
0.202507
0.15519
0.228602
0.365207
0.471623
0.481716
0.402155
0.304293
0.271067
0.339442
0.474076
0.585028
0.576159
0.396361
0.0794104
-0.251856
-0.450002
-0.43159
-0.219105
0.066911
0.26472
0.262968
0.0644281
-0.214929
-0.414394
-0.423589
-0.232551
0.0734276
0.361388
0.531588
0.570077
0.532235
0.490599
0.486372
0.506357
0.499703
0.426986
0.305097
0.205131
0.19963
0.30356
0.455678
0.552998
0.509381
0.303648
0.00677338
0.11595
0.0742084
0.171087
0.358037
0.528949
0.579354
0.457573
0.192847
-0.101529
-0.280831
-0.254351
-0.0344299
0.267796
0.499047
0.546441
0.383345
0.077298
-0.228434
-0.385047
-0.318749
-0.0607522
0.268029
0.516092
0.580108
0.441421
0.164743
-0.120623
-0.278909
-0.237546
-0.0167756
0.281138
0.522125
0.60969
0.51805
0.290258
0.0274777
-0.149614
-0.160603
-0.00214558
0.249789
0.474372
0.568536
0.491161
0.274951
0.0221291
-0.136703
-0.115931
0.076032
0.342115
0.554159
0.624513
0.535409
0.332971
0.111663
-0.0254755
-0.0201741
0.115104
0.309726
0.476581
0.556173
0.5281
0.401259
0.216604
0.0491148
-0.0220635
0.0415453
0.214798
0.420741
0.569836
0.595835
0.467095
0.199049
-0.124835
-0.374165
-0.440835
-0.292086
0.0126728
0.33754
0.537299
0.533051
0.33828
0.0503383
-0.188447
-0.263346
-0.142996
0.110733
0.375769
0.543827
0.583965
0.541828
0.493822
0.497084
0.55691
0.62533
0.630196
0.51842
0.297642
0.0513159
-0.10289
-0.0888322
0.0779188
0.291736
0.409931
0.330964
0.0546974
-0.303192
-0.570808
-0.622339
-0.435029
-0.0926764
0.249532
0.453029
0.474445
0.369668
0.246455
0.199516
0.257149
0.373969
0.473678
0.50952
0.493686
0.473708
0.485837
0.5274
0.560852
0.53761
0.430215
0.263407
0.426373
0.411322
0.440287
0.505031
0.566588
0.578567
0.509841
0.365774
0.201838
0.102056
0.125216
0.263909
0.446525
0.579519
0.597105
0.484889
0.285537
0.0909653
-0.00011173
0.0601801
0.242459
0.458462
0.612297
0.648108
0.561739
0.393892
0.22118
0.126547
0.154738
0.288233
0.459776
0.593179
0.642038
0.598016
0.482888
0.345301
0.248303
0.238394
0.318185
0.444271
0.552775
0.593685
0.548499
0.433463
0.299809
0.216327
0.229083
0.330058
0.463876
0.567501
0.606407
0.579016
0.505203
0.419771
0.361221
0.35001
0.376011
0.410856
0.433993
0.444206
0.445619
0.432466
0.397812
0.353089
0.326833
0.341585
0.396496
0.470123
0.532662
0.551639
0.494509
0.348159
0.149424
-0.0160597
-0.0616795
0.0459168
0.260949
0.473362
0.563098
0.457201
0.164914
-0.208151
-0.500885
-0.586366
-0.428924
-0.0936486
0.275409
0.533373
0.618643
0.563358
0.452617
0.376323
0.384071
0.461597
0.54468
0.563008
0.490021
0.36624
0.274487
0.281573
0.388758
0.523953
0.57924
0.46897
0.183113
-0.184222
-0.473311
-0.554427
-0.395246
-0.0751615
0.24493
0.410391
0.360524
0.151899
-0.0767425
-0.18391
-0.105684
0.118039
0.375855
0.557274
0.616839
0.578872
0.501472
0.441302
0.427589
0.449345
0.468835
0.45796
0.595045
0.597246
0.550481
0.491579
0.452118
0.444663
0.455731
0.459573
0.445922
0.431318
0.439348
0.474585
0.519171
0.549355
0.549236
0.513278
0.450098
0.388008
0.363468
0.393515
0.460752
0.527842
0.566359
0.570496
0.548035
0.510106
0.472389
0.453627
0.462227
0.486668
0.506021
0.510958
0.509756
0.513185
0.520592
0.524604
0.523411
0.520995
0.5176
0.508527
0.493756
0.481316
0.477433
0.478978
0.480024
0.480541
0.481602
0.476241
0.45634
0.429892
0.421207
0.448618
0.505527
0.564483
0.594969
0.574299
0.492177
0.3639
0.239958
0.183494
0.225829
0.34154
0.466509
0.543304
0.550579
0.498842
0.418495
0.352382
0.337278
0.376742
0.432274
0.450775
0.411539
0.347675
0.319481
0.366147
0.47323
0.573916
0.579976
0.423819
0.104089
-0.282909
-0.580095
-0.662224
-0.493612
-0.140661
0.243475
0.496917
0.541489
0.405103
0.191895
0.030262
0.00812557
0.13197
0.331118
0.503127
0.579221
0.561977
0.509945
0.490721
0.534468
0.612625
0.653157
0.581729
0.37106
0.0780574
-0.171062
-0.256034
-0.136964
0.118137
0.361667
0.446386
0.305887
-0.00658282
-0.334621
-0.506674
-0.434601
-0.149614
0.215329
0.49719
0.59851
0.522556
0.34846
0.189638
0.138268
0.216469
0.371194
0.517114
0.618358
0.619844
0.4883
0.306346
0.174509
0.160414
0.262622
0.418152
0.548237
0.605296
0.583547
0.50463
0.407961
0.340655
0.335221
0.390053
0.472408
0.542483
0.574769
0.558895
0.495223
0.402568
0.321883
0.296829
0.344594
0.442921
0.543993
0.602094
0.590172
0.503722
0.368557
0.242465
0.18922
0.239276
0.369388
0.515705
0.611538
0.618675
0.534704
0.392805
0.256888
0.194197
0.236166
0.359152
0.498797
0.58694
0.581173
0.474357
0.301705
0.140024
0.0735627
0.143264
0.31978
0.51698
0.637977
0.618702
0.447696
0.180025
-0.0678041
-0.174724
-0.087173
0.149857
0.417549
0.594064
0.615638
0.486414
0.269689
0.0720545
-0.00601688
0.071202
0.254791
0.444557
0.558089
0.579744
0.550649
0.525513
0.533805
0.559503
0.545403
0.424737
0.174703
-0.140186
-0.389624
-0.457771
-0.307282
-0.00129408
0.314139
0.48467
0.431384
0.183336
-0.135381
-0.365963
-0.399591
-0.222596
0.0839067
0.382998
0.562081
0.593012
0.525916
0.44606
0.42386
0.475187
0.554411
0.58573
0.515953
0.359084
0.197776
0.130993
0.204858
0.375775
0.528922
0.540007
0.341692
-0.0259998
-0.410626
-0.630865
-0.584209
-0.291274
0.109092
0.424128
0.519797
0.381663
0.106323
-0.144461
-0.228702
-0.100381
0.173098
0.45381
0.557326
0.536523
0.315633
0.0206411
-0.188129
-0.201595
-0.0158644
0.271783
0.520174
0.62525
0.559059
0.363133
0.132828
-0.0192324
-0.0200433
0.127663
0.349107
0.539028
0.616399
0.549985
0.359929
0.119282
-0.0666906
-0.112398
0.00463122
0.231345
0.461779
0.591356
0.562211
0.377413
0.106126
-0.132843
-0.229009
-0.137233
0.101375
0.375052
0.557899
0.572574
0.414393
0.152054
-0.0913072
-0.196934
-0.113226
0.119781
0.388012
0.562132
0.560278
0.373759
0.0739924
-0.203274
-0.324484
-0.230095
0.0376895
0.350115
0.554652
0.550685
0.32591
-0.0317091
-0.355755
-0.487753
-0.363097
-0.0397327
0.326055
0.564642
0.58082
0.376039
0.0432273
-0.257702
-0.379087
-0.264838
0.0265177
0.353354
0.576506
0.639669
0.575506
0.46457
0.387896
0.381571
0.414364
0.41123
0.31504
0.142612
-0.0172544
-0.065415
0.0402435
0.252937
0.453988
0.515061
0.365292
0.033378
-0.348323
-0.610275
-0.641366
-0.430165
-0.0660644
0.290351
0.494958
0.499202
0.356161
0.180738
0.0883453
0.133537
0.286094
0.455753
0.552315
0.545102
0.477154
0.427542
0.452886
0.545749
0.634449
0.621219
0.436614
0.0962436
-0.275352
-0.507653
-0.490258
-0.231963
0.135134
0.416476
0.466213
0.258698
-0.100824
-0.421042
-0.532178
-0.375668
-0.0259426
0.343235
0.490485
0.431687
0.135224
-0.240575
-0.496997
-0.505248
-0.261704
0.114716
0.438782
0.563803
0.446339
0.147909
-0.18733
-0.397669
-0.387115
-0.162972
0.169111
0.452725
0.562711
0.453509
0.16471
-0.184262
-0.439926
-0.492948
-0.32143
0.00197613
0.330864
0.515902
0.476086
0.222152
-0.141724
-0.45251
-0.572715
-0.451865
-0.140231
0.221583
0.465088
0.482497
0.267586
-0.0824148
-0.400294
-0.534884
-0.42424
-0.11593
0.246484
0.490222
0.503213
0.274586
-0.100122
-0.44758
-0.606341
-0.507023
-0.193651
0.187353
0.451477
0.474313
0.242889
-0.137519
-0.479324
-0.612196
-0.469879
-0.11487
0.283476
0.536628
0.535181
0.279166
-0.121499
-0.477514
-0.61925
-0.483424
-0.134096
0.261892
0.526107
0.573033
0.433776
0.220624
0.0680929
0.0592373
0.180673
0.339414
0.433405
0.426568
0.365283
0.330631
0.374532
0.482049
0.576842
0.562617
0.376115
0.0364349
-0.337562
-0.587094
-0.6074
-0.391477
-0.0343704
0.29643
0.448832
0.367979
0.114848
-0.165941
-0.322965
-0.27734
-0.0515619
0.247496
0.488466
0.595653
0.581814
0.518744
0.484521
0.515255
0.582209
0.6082
0.516005
0.289061
0.00709057
-0.190209
-0.194331
0.00062461
0.285259
0.490723
0.482919
0.229937
-0.170006
-0.522752
-0.651815
-0.493568
-0.122708
0.272394
0.474917
0.378364
0.0430272
-0.363024
-0.631189
-0.631278
-0.363051
0.0456615
0.391534
0.509529
0.350434
-0.0102272
-0.399118
-0.631489
-0.606601
-0.337536
0.0548474
0.387905
0.513822
0.381834
0.0451664
-0.350532
-0.629749
-0.677617
-0.476512
-0.107751
0.265619
0.475718
0.433371
0.154759
-0.240321
-0.572274
-0.696436
-0.562966
-0.225473
0.166232
0.428887
0.443793
0.204517
-0.180298
-0.526822
-0.673429
-0.555423
-0.22104
0.17849
0.455718
0.487862
0.262756
-0.119722
-0.480332
-0.652935
-0.564809
-0.255676
0.131913
0.41371
0.464719
0.272311
-0.0638558
-0.370213
-0.488657
-0.356675
-0.0324469
0.327829
0.551102
0.534322
0.274344
-0.124854
-0.478481
-0.618565
-0.481771
-0.133973
0.251084
0.48272
0.46311
0.225456
-0.088899
-0.302656
-0.301905
-0.0911761
0.217492
0.47644
0.600243
0.602629
0.55575
0.53001
0.551435
0.588212
0.570451
0.435092
0.179474
-0.111937
-0.308849
-0.316736
-0.129213
0.162848
0.406513
0.46523
0.288405
-0.0587532
-0.415762
-0.615142
-0.570638
-0.301969
0.0741803
0.395067
0.547801
0.52362
0.398549
0.282518
0.258582
0.336348
0.450632
0.507296
0.451033
0.310944
0.184565
0.167903
0.285375
0.468147
0.593166
0.551384
0.305269
-0.071699
-0.410144
-0.543499
-0.405778
-0.0663596
0.29287
0.519964
0.405183
0.0832821
-0.295911
-0.541436
-0.532706
-0.27335
0.110309
0.424923
0.517175
0.343186
-0.0208958
-0.403153
-0.622843
-0.584928
-0.30815
0.0834974
0.410058
0.531063
0.402456
0.0794804
-0.296184
-0.556093
-0.591414
-0.389533
-0.0340183
0.318722
0.515019
0.477272
0.223006
-0.138356
-0.442351
-0.553555
-0.425239
-0.111265
0.246731
0.482737
0.491998
0.269241
-0.0884274
-0.413451
-0.554069
-0.447468
-0.139142
0.230417
0.491884
0.537198
0.35579
0.0311288
-0.284946
-0.445262
-0.380387
-0.122426
0.207423
0.456774
0.524853
0.401238
0.159675
-0.0712993
-0.169592
-0.0821558
0.150352
0.413407
0.579112
0.565397
0.360762
0.0387293
-0.25389
-0.371887
-0.255292
0.0359701
0.342878
0.491275
0.387749
0.066541
-0.316641
-0.565194
-0.555255
-0.289446
0.10836
0.457801
0.636702
0.638162
0.537161
0.432512
0.394679
0.430004
0.482221
0.475052
0.372641
0.214854
0.0941693
0.0911946
0.219923
0.413138
0.553447
0.532387
0.304625
-0.0732725
-0.448892
-0.65867
-0.617555
-0.345388
0.0371362
0.354642
0.476302
0.381412
0.154766
-0.0602615
-0.139255
-0.0424955
0.172884
0.391654
0.514288
0.519587
0.464933
0.432824
0.470537
0.560118
0.631087
0.601335
0.425692
0.140866
-0.130206
-0.247871
-0.147062
0.117913
0.39505
0.583903
0.483476
0.230015
-0.0673774
-0.259048
-0.244853
-0.0300897
0.276012
0.51758
0.577282
0.423494
0.118106
-0.198729
-0.37549
-0.331417
-0.0889385
0.238946
0.503662
0.599013
0.496911
0.2433
-0.0515133
-0.253726
-0.273698
-0.104491
0.178243
0.448899
0.595588
0.566873
0.377955
0.107661
-0.122189
-0.204801
-0.102036
0.139169
0.406309
0.577912
0.581293
0.413085
0.141432
-0.110631
-0.223846
-0.145628
0.086382
0.36235
0.559411
0.604192
0.490737
0.273339
0.0521861
-0.0691749
-0.0370556
0.128255
0.345645
0.5189
0.587052
0.541543
0.417978
0.281585
0.200165
0.211532
0.307069
0.438504
0.54142
0.559582
0.464933
0.282561
0.0987719
0.0182653
0.0950163
0.290291
0.48499
0.542928
0.38368
0.0342113
-0.360156
-0.610133
-0.595921
-0.321735
0.0842582
0.42994
0.577234
0.509808
0.313459
0.121487
0.0456053
0.119034
0.286179
0.443976
0.513836
0.491445
0.43584
0.417905
0.470636
0.567353
0.635249
0.59274
0.393833
0.0716247
-0.253619
-0.438949
-0.403083
-0.164376
0.160844
0.406823
0.447295
0.257783
-0.071812
-0.37583
-0.505174
-0.402357
-0.115291
0.227376
0.485706
0.59224
0.572167
0.501544
0.455427
0.468835
0.520897
0.550696
0.499663
0.361312
0.201459
0.119064
0.173684
0.338702
0.513523
0.595634
0.543314
0.400988
0.225406
0.108912
0.120009
0.256535
0.446161
0.591211
0.621663
0.519157
0.321494
0.117133
0.00656389
0.0443744
0.209462
0.419699
0.580829
0.635158
0.573517
0.425769
0.255264
0.140319
0.134986
0.239443
0.401482
0.54729
0.621295
0.603551
0.504592
0.363155
0.241695
0.199674
0.258866
0.389626
0.528277
0.613557
0.612419
0.523816
0.37955
0.241848
0.176837
0.21524
0.333721
0.471398
0.569362
0.599007
0.560694
0.474616
0.378263
0.314749
0.309386
0.35654
0.429308
0.501047
0.556707
0.586914
0.582231
0.538915
0.465447
0.383034
0.323049
0.315543
0.36695
0.445553
0.496269
0.483529
0.425645
0.382244
0.404475
0.490948
0.580363
0.582872
0.430688
0.13169
-0.204618
-0.419389
-0.404636
-0.165261
0.175957
0.438087
0.488901
0.31218
0.00753132
-0.261467
-0.357112
-0.234634
0.0453511
0.35048
0.557184
0.622679
0.585452
0.519849
0.489907
0.516323
0.566692
0.575184
0.48465
0.294307
0.0784447
-0.0535627
-0.0280328
0.146066
0.37459
0.522673
0.483004
0.228652
-0.158193
-0.511168
-0.675128
-0.584265
-0.27686
0.116345
0.431387
0.567086
0.524267
0.37836
0.235417
0.181169
0.237674
0.357664
0.461001
0.492249
0.458955
0.417583
0.422219
0.4826
0.560197
0.488234
0.510185
0.501785
0.462729
0.423976
0.419311
0.45542
0.509849
0.552048
0.561325
0.530136
0.466096
0.397108
0.361255
0.379261
0.43709
0.498375
0.534268
0.539831
0.524581
0.498176
0.470384
0.454901
0.461275
0.48311
0.501577
0.50412
0.496069
0.490571
0.491854
0.494318
0.494961
0.497964
0.505132
0.509632
0.504925
0.495279
0.490479
0.492345
0.493646
0.490145
0.485803
0.482791
0.474231
0.455157
0.437057
0.441423
0.4767
0.52667
0.562877
0.56387
0.522237
0.44636
0.36659
0.329621
0.368812
0.472672
0.582868
0.626477
0.556955
0.382465
0.175423
0.0429661
0.059121
0.212622
0.41448
0.562198
0.609305
0.580557
0.535559
0.521209
0.539048
0.542235
0.468115
0.294197
0.077772
-0.0687019
-0.0557249
0.117106
0.349333
0.491742
0.431737
0.157061
-0.224692
-0.536256
-0.634779
-0.476799
-0.127657
0.260176
0.52905
0.607913
0.526152
0.374375
0.256639
0.239925
0.321904
0.438095
0.506099
0.483554
0.397948
0.323622
0.326878
0.419812
0.548778
0.621116
0.550742
0.303677
-0.062454
-0.405383
-0.578675
-0.511095
-0.231946
0.134295
0.421978
0.516554
0.402212
0.154744
-0.0914398
-0.209246
-0.144568
0.0650095
0.316786
0.504325
0.579724
0.56395
0.510865
0.469743
0.464668
0.236399
0.347085
0.478602
0.570772
0.59711
0.56249
0.487073
0.401436
0.342957
0.339112
0.389559
0.466269
0.533468
0.567146
0.555967
0.496203
0.400382
0.306375
0.262496
0.296148
0.394036
0.50992
0.592623
0.608324
0.545453
0.419311
0.27856
0.189458
0.198052
0.301242
0.447953
0.569741
0.61676
0.571776
0.450288
0.301901
0.196477
0.187454
0.279976
0.427817
0.560594
0.620908
0.582361
0.452418
0.279204
0.143854
0.119152
0.223229
0.404731
0.570353
0.636274
0.564184
0.375046
0.152855
0.0138877
0.0375824
0.21211
0.434278
0.566046
0.511806
0.271041
-0.046911
-0.27162
-0.277347
-0.0607602
0.259811
0.521878
0.624148
0.570551
0.44189
0.339364
0.323753
0.380222
0.43754
0.431745
0.363384
0.296741
0.302972
0.397578
0.519003
0.560672
0.432479
0.121849
-0.272068
-0.580763
-0.669335
-0.499633
-0.141253
0.245631
0.4911
0.511492
0.334653
0.0734273
-0.128384
-0.168654
-0.032349
0.209123
0.439467
0.569462
0.585739
0.538802
0.497809
0.507519
0.563095
0.612124
0.582375
0.425592
0.162859
-0.10617
-0.257731
-0.218208
-0.00435806
0.277682
0.482202
0.499637
0.303162
-0.0355184
-0.36543
-0.535313
-0.472701
-0.205972
0.149199
0.444597
0.584145
0.560474
0.431671
0.286816
0.208951
-0.109865
0.0858573
0.346041
0.552409
0.626114
0.549904
0.36069
0.141171
-0.00795812
-0.0177721
0.114455
0.324881
0.516732
0.609826
0.566837
0.395783
0.155376
-0.0546696
-0.13975
-0.0592782
0.152734
0.400008
0.572132
0.596586
0.458206
0.204188
-0.0603348
-0.216362
-0.192887
0.000448799
0.275328
0.50549
0.591893
0.500082
0.265718
-0.010206
-0.199769
-0.214092
-0.0449657
0.231204
0.486929
0.608884
0.544298
0.312518
0.00864317
-0.225504
-0.275761
-0.115774
0.178041
0.45867
0.586261
0.494813
0.21668
-0.118073
-0.337257
-0.327252
-0.0969567
0.22219
0.442253
0.427227
0.168901
-0.199816
-0.47114
-0.490921
-0.247447
0.124923
0.426081
0.518809
0.398774
0.17529
0.00153775
-0.015853
0.124431
0.329842
0.48798
0.547483
0.537495
0.523123
0.545922
0.589941
0.589311
0.470491
0.210991
-0.118104
-0.377687
-0.447352
-0.292081
0.0187505
0.333056
0.492875
0.417318
0.135829
-0.220727
-0.482544
-0.532316
-0.349875
-0.0126515
0.33409
0.558199
0.61346
0.539714
0.42266
0.348877
0.362192
0.441227
0.514836
0.50982
0.405059
0.252575
0.14483
0.15341
0.282183
0.459571
0.574447
0.530715
0.291442
-0.0860899
-0.454249
-0.655194
-0.60652
-0.327715
0.0628659
0.394414
0.539252
0.468883
0.246376
-0.00269386
-0.145644
-0.433008
-0.177386
0.177591
0.467831
0.570171
0.450199
0.162625
-0.163133
-0.377295
-0.385667
-0.186475
0.13062
0.421416
0.560589
0.491715
0.234978
-0.111512
-0.400513
-0.509133
-0.392576
-0.0975269
0.247192
0.487101
0.519584
0.327659
-0.0149888
-0.360222
-0.555737
-0.519825
-0.266164
0.0967084
0.403573
0.518208
0.392581
0.078124
-0.285278
-0.530789
-0.550713
-0.33473
0.0267964
0.369948
0.53937
0.461151
0.1634
-0.224182
-0.519422
-0.585893
-0.392981
-0.0270744
0.3337
0.510228
0.415739
0.0898426
-0.308185
-0.573988
-0.576088
-0.317719
0.0628084
0.354311
0.397497
0.175696
-0.177141
-0.448937
-0.479629
-0.253863
0.0922304
0.351098
0.377112
0.170098
-0.134179
-0.348008
-0.34436
-0.122393
0.201104
0.470699
0.595974
0.589353
0.527009
0.486405
0.496108
0.520466
0.489555
0.358867
0.158296
-0.0153139
-0.0625293
0.0524147
0.274602
0.480564
0.541547
0.386558
0.0422162
-0.358947
-0.642702
-0.692132
-0.488709
-0.113809
0.271232
0.508421
0.530858
0.376401
0.155633
-0.000968065
-0.00899139
0.130259
0.336947
0.502873
0.56107
0.521654
0.450726
0.420707
0.464861
0.556215
0.620671
0.573819
0.365746
0.0274313
-0.31832
-0.521879
-0.493362
-0.242864
0.1163
0.413256
0.511966
0.371743
0.0576963
-0.27856
-0.472384
-0.612642
-0.33305
0.0659458
0.396107
0.507756
0.356387
0.01003
-0.371621
-0.613182
-0.613084
-0.373279
0.00391403
0.349616
0.514474
0.433754
0.137052
-0.255102
-0.573058
-0.685342
-0.54937
-0.217405
0.169453
0.438762
0.475904
0.264667
-0.108809
-0.479243
-0.684129
-0.640942
-0.365405
0.0282516
0.361971
0.486294
0.348219
0.00497646
-0.389498
-0.655464
-0.680103
-0.451704
-0.0625014
0.312526
0.502344
0.424501
0.109857
-0.300641
-0.61293
-0.685065
-0.484783
-0.0985205
0.289332
0.489212
0.408164
0.0852133
-0.318414
-0.594777
-0.607342
-0.352468
0.0393646
0.362474
0.459671
0.309212
0.0247527
-0.209256
-0.248312
-0.0767689
0.182495
0.34416
0.280851
0.00458741
-0.336236
-0.548231
-0.511226
-0.2376
0.136551
0.431107
0.537306
0.467533
0.322032
0.219837
0.228279
0.328264
0.437242
0.475441
0.426926
0.346399
0.312143
0.367495
0.489211
0.597544
0.59753
0.426196
0.0970544
-0.278508
-0.542895
-0.58539
-0.389184
-0.0380799
0.305811
0.48335
0.422418
0.163059
-0.160755
-0.385435
-0.403885
-0.207944
0.114232
0.420258
0.597965
0.623773
0.550292
0.46201
0.429629
0.471924
0.54458
0.565609
0.465828
0.24249
-0.0201137
-0.194164
-0.186981
0.00433531
0.283898
0.502353
0.534867
0.335115
-0.0375609
-0.42407
-0.648019
-0.583846
-0.314417
0.0743565
0.395002
0.498051
0.339277