# vtk DataFile Version 3.0
PFC simulation results
ASCII
DATASET STRUCTURED_POINTS
DIMENSIONS 128 128 1
ORIGIN 0 0 0
SPACING 1 1 1
POINT_DATA 16384
SCALARS psi double
LOOKUP_TABLE default
0.273129
0.48296
0.443372
0.160476
-0.240031
-0.564208
-0.657998
-0.478153
-0.10429
0.286545
0.510987
0.475188
0.201835
-0.179052
-0.481449
-0.562437
-0.387928
-0.0429969
0.299512
0.468244
0.380776
0.0736951
-0.307669
-0.57743
-0.610982
-0.396559
-0.0382963
0.282068
0.402052
0.264095
-0.0611489
-0.405196
-0.591563
-0.529581
-0.250029
0.105374
0.350681
0.359184
0.123934
-0.240617
-0.553671
-0.666595
-0.525013
-0.179003
0.228238
0.525795
0.60341
0.439385
0.0986073
-0.269533
-0.491502
-0.466893
-0.218065
0.119058
0.362855
0.386718
0.178371
-0.15662
-0.444649
-0.54225
-0.407998
-0.108986
0.220314
0.459723
0.568806
0.572708
0.502851
0.364531
0.153695
-0.107426
-0.359485
-0.530914
-0.568605
-0.452669
-0.206768
0.0961922
0.36028
0.517742
0.557297
0.514431
0.445997
0.403108
0.408799
0.449782
0.486634
0.47816
0.407177
0.291809
0.173974
0.0916911
0.0561234
0.0513027
0.0531449
0.0492754
0.0448842
0.0525557
0.0747513
0.0923862
0.0702349
-0.0201818
-0.173153
-0.338507
-0.44142
-0.419763
-0.256524
0.00357848
0.267733
0.446755
0.507141
0.479722
0.42924
0.410264
0.432752
0.46012
0.445482
0.379807
0.307993
0.294218
0.366184
0.484199
0.558027
0.497201
0.266185
-0.0744613
-0.380241
-0.505856
-0.387711
-0.0769085
0.406575
0.54447
0.48019
0.213314
-0.152892
-0.448783
-0.533745
-0.367231
-0.0257085
0.323495
0.508195
0.438739
0.138514
-0.258298
-0.561758
-0.631051
-0.43774
-0.0731296
0.283556
0.457867
0.370578
0.0654972
-0.306266
-0.55893
-0.573761
-0.347678
0.00835692
0.313796
0.415489
0.266999
-0.0529745
-0.374584
-0.528099
-0.434722
-0.137831
0.215657
0.448767
0.449414
0.215972
-0.143919
-0.458886
-0.584113
-0.464727
-0.147634
0.232681
0.517633
0.606518
0.480362
0.194994
-0.121201
-0.31347
-0.286984
-0.0604341
0.240699
0.450214
0.450871
0.226934
-0.125119
-0.435147
-0.554315
-0.432009
-0.128931
0.218396
0.478864
0.59871
0.594234
0.496867
0.322623
0.0858522
-0.17407
-0.392397
-0.507325
-0.484632
-0.3247
-0.0671994
0.209252
0.414238
0.488273
0.426759
0.278336
0.123971
0.0398916
0.063312
0.179235
0.330368
0.44952
0.498908
0.485951
0.447025
0.417333
0.408314
0.405494
0.385515
0.337661
0.273478
0.21774
0.186933
0.170748
0.132238
0.0311135
-0.142218
-0.346617
-0.503434
-0.535386
-0.406732
-0.151224
0.129599
0.318617
0.354139
0.261341
0.131339
0.0651207
0.113418
0.251902
0.406129
0.508505
0.543944
0.546113
0.555652
0.582365
0.596028
0.544775
0.392749
0.162648
-0.0549115
-0.151145
-0.0692417
0.155797
0.531042
0.597651
0.541297
0.35144
0.0889387
-0.128522
-0.192073
-0.0663526
0.18796
0.44041
0.559939
0.477052
0.209671
-0.131761
-0.386573
-0.433478
-0.251483
0.0722034
0.379641
0.52666
0.453494
0.201455
-0.102179
-0.301648
-0.297675
-0.0948339
0.203351
0.445724
0.515333
0.383957
0.120893
-0.134135
-0.242815
-0.145311
0.111326
0.399575
0.582137
0.580266
0.396212
0.109596
-0.149129
-0.26245
-0.183322
0.0488019
0.327965
0.537866
0.608985
0.530051
0.339512
0.124925
-0.00337972
0.0264763
0.20093
0.424913
0.575091
0.563476
0.373776
0.0755792
-0.195413
-0.3102
-0.219997
0.0229909
0.299628
0.499079
0.579064
0.557549
0.46549
0.32041
0.137349
-0.0498211
-0.189385
-0.235641
-0.169715
-0.0057968
0.208965
0.402247
0.499284
0.451418
0.259767
-0.0115271
-0.254384
-0.370706
-0.316475
-0.114064
0.155849
0.392076
0.530614
0.571302
0.557658
0.539469
0.542994
0.561063
0.566558
0.538186
0.478915
0.413742
0.368857
0.347529
0.321341
0.246347
0.0968843
-0.105303
-0.290736
-0.375489
-0.308552
-0.110159
0.122545
0.26349
0.234199
0.0529238
-0.171689
-0.303191
-0.257437
-0.044402
0.242034
0.481635
0.602554
0.610097
0.558397
0.506687
0.48529
0.481525
0.456844
0.388657
0.301407
0.253228
0.288951
0.401564
0.5329
0.545563
0.531024
0.46467
0.354246
0.250097
0.2151
0.278075
0.410459
0.541497
0.59756
0.534924
0.358631
0.134144
-0.0329871
-0.0571362
0.0758662
0.30036
0.506997
0.603899
0.556985
0.395446
0.201822
0.0782986
0.0905569
0.230505
0.423054
0.570627
0.605785
0.517342
0.351274
0.194962
0.134628
0.204281
0.366576
0.538892
0.643847
0.643418
0.541702
0.380103
0.228344
0.153708
0.183709
0.29316
0.423593
0.520645
0.558068
0.533067
0.458348
0.368016
0.313719
0.334841
0.427859
0.545243
0.623362
0.613409
0.500589
0.318517
0.146784
0.0696442
0.120329
0.258952
0.401988
0.482447
0.488839
0.450788
0.397875
0.337368
0.265779
0.192294
0.144126
0.14985
0.220682
0.34297
0.479497
0.576552
0.576323
0.43528
0.154077
-0.194689
-0.486414
-0.612653
-0.530032
-0.269976
0.0668378
0.351577
0.499983
0.510264
0.444047
0.381884
0.378253
0.436358
0.516367
0.569374
0.572341
0.539246
0.503849
0.490026
0.490501
0.469216
0.388539
0.244155
0.0812179
-0.0249511
-0.0156153
0.105387
0.258857
0.328705
0.231586
-0.0246112
-0.329378
-0.528742
-0.516264
-0.285838
0.0637681
0.376848
0.534593
0.515809
0.386122
0.251721
0.201135
0.258096
0.377263
0.485878
0.538982
0.541726
0.526885
0.521794
0.349312
0.325062
0.375101
0.454891
0.512675
0.528236
0.51696
0.504116
0.503572
0.514627
0.525469
0.516404
0.471387
0.398687
0.336046
0.32437
0.374786
0.461293
0.541545
0.583347
0.575085
0.524327
0.457667
0.412899
0.415872
0.461892
0.52154
0.563565
0.571873
0.546507
0.500242
0.457074
0.441614
0.460297
0.495994
0.525414
0.539248
0.541986
0.537628
0.525014
0.505896
0.48673
0.468582
0.44389
0.410587
0.384528
0.38825
0.426078
0.47636
0.511654
0.522118
0.515924
0.505075
0.497659
0.49656
0.496407
0.484613
0.454828
0.420829
0.407945
0.424127
0.443521
0.427224
0.363813
0.285534
0.241928
0.25844
0.318503
0.382812
0.424511
0.445077
0.462627
0.493726
0.54338
0.600365
0.634322
0.598286
0.445441
0.166579
-0.173845
-0.454404
-0.566572
-0.468689
-0.200102
0.126052
0.37011
0.442286
0.345349
0.164296
0.0179215
-0.00698515
0.101915
0.285272
0.452956
0.540909
0.544015
0.505435
0.479763
0.494635
0.533034
0.549644
0.510222
0.423763
0.341268
0.319205
0.372713
0.453361
0.470432
0.344763
0.0682126
-0.267197
-0.511066
-0.54493
-0.346848
-0.00905595
0.300247
0.435161
0.353564
0.128346
-0.0953722
-0.181348
-0.0766976
0.167265
0.431354
0.604452
0.642736
0.56966
0.447534
0.0142506
-0.0364835
0.0823624
0.304056
0.516985
0.63382
0.62932
0.530796
0.397735
0.300262
0.286098
0.353864
0.457397
0.540726
0.573571
0.556078
0.503274
0.438149
0.391112
0.388591
0.434775
0.50579
0.565482
0.587494
0.562693
0.497263
0.415054
0.354373
0.348312
0.401967
0.487217
0.560246
0.584871
0.54353
0.443059
0.322086
0.240826
0.246637
0.342202
0.481773
0.598355
0.638641
0.578478
0.428019
0.241086
0.10337
0.0851299
0.194936
0.372028
0.524366
0.583703
0.533158
0.404066
0.26168
0.1763
0.186265
0.280522
0.411287
0.525208
0.587823
0.580946
0.491297
0.323339
0.123732
-0.026709
-0.0579384
0.0461834
0.236296
0.427933
0.555161
0.599464
0.579414
0.530971
0.493097
0.490495
0.515441
0.523377
0.454331
0.278057
0.0338398
-0.17861
-0.259313
-0.16644
0.0600886
0.309768
0.452225
0.40464
0.175647
-0.129643
-0.360592
-0.407572
-0.254339
0.0215808
0.288941
0.438465
0.442876
0.357616
0.277099
0.274959
0.361136
0.484184
0.57482
0.597281
0.569625
0.540967
0.547613
0.580243
0.583148
0.48773
0.26636
-0.0253966
-0.263826
-0.331658
-0.192635
0.0773114
0.321116
0.390782
0.232769
-0.0800309
-0.381056
-0.506456
-0.384923
-0.0669282
0.298584
0.547394
0.592602
0.449061
0.211588
-0.340011
-0.409806
-0.239445
0.0892209
0.41744
0.600571
0.579815
0.388331
0.130871
-0.0578952
-0.0817797
0.0680688
0.312866
0.533249
0.637208
0.59399
0.429704
0.218823
0.0613548
0.0341624
0.149192
0.34592
0.523932
0.597659
0.531831
0.350152
0.131908
-0.018471
-0.0262173
0.113543
0.331062
0.516967
0.579531
0.482101
0.255827
-0.00225126
-0.169099
-0.161701
0.0212099
0.296325
0.53496
0.62971
0.535588
0.280972
-0.0286899
-0.247968
-0.271471
-0.0909733
0.19901
0.449708
0.542162
0.440469
0.19647
-0.0714017
-0.234143
-0.218632
-0.0349305
0.235344
0.480373
0.613091
0.593351
0.418897
0.132535
-0.166474
-0.357301
-0.359665
-0.171322
0.127299
0.410256
0.577597
0.597184
0.495286
0.336905
0.20477
0.163356
0.224507
0.338744
0.422227
0.4124
0.31452
0.198756
0.15081
0.215473
0.366723
0.516476
0.557403
0.416536
0.102165
-0.274959
-0.551258
-0.608661
-0.431395
-0.109111
0.19919
0.351611
0.304182
0.125529
-0.0492745
-0.100123
0.0111615
0.229673
0.449427
0.5833
0.611886
0.577465
0.541827
0.540898
0.559484
0.542735
0.44228
0.267286
0.0954478
0.0248454
0.101904
0.278921
0.432459
0.433987
0.226161
-0.130353
-0.472618
-0.630621
-0.523105
-0.193671
0.199937
0.46538
0.486258
0.269223
-0.0660411
-0.554778
-0.636178
-0.444468
-0.0662955
0.315161
0.518979
0.463037
0.187033
-0.166515
-0.416529
-0.439895
-0.225537
0.124304
0.441546
0.585133
0.502849
0.236415
-0.0910448
-0.323655
-0.353265
-0.169007
0.137639
0.412844
0.522512
0.414067
0.132323
-0.19266
-0.404974
-0.404849
-0.191236
0.135603
0.41534
0.512003
0.375434
0.0582204
-0.2963
-0.521414
-0.514526
-0.275339
0.0921869
0.417398
0.551907
0.435906
0.114521
-0.267126
-0.525596
-0.540209
-0.306989
0.0591413
0.373307
0.483069
0.341163
0.0157781
-0.336817
-0.550669
-0.53459
-0.297952
0.0598102
0.389794
0.568764
0.542189
0.31751
-0.0336065
-0.376514
-0.570347
-0.537369
-0.290034
0.0694457
0.389019
0.54837
0.507401
0.301164
0.025768
-0.192861
-0.257672
-0.143867
0.0926144
0.340333
0.497528
0.534201
0.495264
0.456163
0.472245
0.545715
0.62247
0.619222
0.467583
0.164625
-0.195216
-0.459224
-0.511274
-0.335406
-0.0252762
0.253105
0.350031
0.216318
-0.0702571
-0.345753
-0.457349
-0.34626
-0.0663812
0.248254
0.461719
0.515928
0.447429
0.347979
0.30412
0.344638
0.428765
0.484632
0.47004
0.407682
0.364401
0.392482
0.481722
0.557828
0.525041
0.326346
-0.00314791
-0.330652
-0.499734
-0.424533
-0.137571
0.21388
0.440889
0.419692
0.149884
-0.240893
-0.535911
-0.620436
-0.437223
-0.0706253
0.295895
0.476251
0.381846
0.0553934
-0.343303
-0.615372
-0.632292
-0.385757
0.0113674
0.367554
0.516516
0.396304
0.0627578
-0.327369
-0.588068
-0.602616
-0.367278
0.00787481
0.338744
0.464739
0.327001
-0.0126945
-0.392277
-0.629596
-0.617573
-0.360319
0.0268954
0.358531
0.477256
0.328215
-0.0244
-0.416325
-0.663818
-0.658874
-0.402022
-0.00302167
0.352998
0.50241
0.38135
0.0439732
-0.349534
-0.606119
-0.605631
-0.349616
0.0395395
0.368482
0.479339
0.324603
-0.0227288
-0.397327
-0.624874
-0.610701
-0.364408
0.0105358
0.356584
0.542399
0.512275
0.280444
-0.0706208
-0.39917
-0.5666
-0.504666
-0.237738
0.12219
0.419684
0.534505
0.424875
0.130131
-0.232417
-0.508846
-0.585877
-0.433545
-0.11049
0.251578
0.51611
0.622713
0.599793
0.523621
0.47206
0.484896
0.542129
0.57532
0.509463
0.318587
0.062721
-0.136117
-0.172624
-0.0263485
0.220503
0.420722
0.44108
0.234694
-0.12374
-0.464347
-0.621881
-0.527173
-0.231262
0.117219
0.349802
0.378444
0.235382
0.0418711
-0.0665773
-0.0194872
0.156729
0.367103
0.515949
0.569241
0.561512
0.551047
0.569005
0.596059
0.57458
0.449869
0.223112
-0.0237057
-0.168698
-0.129928
0.0772805
0.337168
0.494066
0.438109
0.161096
-0.225231
-0.2907
-0.366848
-0.217811
0.0834745
0.378345
0.507229
0.391872
0.0695376
-0.312359
-0.567557
-0.575718
-0.332587
0.0486729
0.381586
0.50672
0.366669
0.0217826
-0.366348
-0.611857
-0.604389
-0.348897
0.0371754
0.367945
0.487858
0.345002
0.00547527
-0.367889
-0.59505
-0.572921
-0.310645
0.0738748
0.399735
0.519658
0.385828
0.0595329
-0.306836
-0.540489
-0.537652
-0.299864
0.0669492
0.391317
0.526584
0.418544
0.118681
-0.228465
-0.449315
-0.436008
-0.194972
0.156898
0.447397
0.543594
0.408812
0.106523
-0.221684
-0.422846
-0.41144
-0.198258
0.121044
0.409773
0.560127
0.530136
0.335967
0.0486804
-0.21364
-0.335647
-0.262689
-0.0240292
0.276584
0.506483
0.565199
0.413716
0.0853607
-0.304182
-0.597662
-0.679059
-0.516687
-0.169576
0.221696
0.502627
0.594133
0.514978
0.351433
0.213977
0.183158
0.26732
0.401381
0.48944
0.470436
0.362633
0.250566
0.224063
0.315157
0.473177
0.591034
0.56379
0.345964
-0.00736816
-0.347569
-0.51685
-0.442215
-0.17076
0.147748
0.337248
0.297893
0.0592115
-0.237206
-0.42069
-0.390653
-0.159065
0.16545
0.440765
0.579032
0.585203
0.525832
0.475102
0.470145
0.492211
0.487464
0.418075
0.304542
0.21819
0.226531
0.337794
0.487087
0.57248
0.511059
0.285145
-0.0301506
0.0760809
0.021201
0.115664
0.312603
0.502802
0.57514
0.47114
0.213468
-0.0894312
-0.291086
-0.291349
-0.0885948
0.218086
0.476059
0.561077
0.430618
0.136029
-0.18789
-0.384047
-0.359143
-0.124982
0.207916
0.481837
0.5756
0.454081
0.173411
-0.134121
-0.31885
-0.293181
-0.0697946
0.245872
0.507216
0.604519
0.506255
0.259349
-0.0227368
-0.205753
-0.204227
-0.0208611
0.255839
0.494643
0.591379
0.511135
0.293084
0.0416227
-0.11554
-0.097353
0.086801
0.343698
0.549427
0.617105
0.527113
0.323598
0.100679
-0.0371658
-0.0301685
0.109628
0.310819
0.48424
0.56892
0.546096
0.427739
0.254695
0.0973605
0.0295221
0.0879861
0.251138
0.447655
0.590048
0.608855
0.468134
0.182819
-0.159612
-0.424454
-0.502056
-0.358255
-0.0497247
0.287345
0.502539
0.512102
0.328964
0.0524935
-0.173682
-0.23615
-0.107666
0.144982
0.39793
0.546559
0.567697
0.515731
0.47229
0.491668
0.568116
0.640201
0.627339
0.478532
0.217041
-0.0505341
-0.192328
-0.13714
0.0783147
0.321816
0.435644
0.324717
0.0124926
-0.357941
-0.602343
-0.604114
-0.362933
0.0100004
0.343496
0.508261
0.483869
0.34535
0.209622
0.169294
0.242574
0.373393
0.480472
0.519086
0.505848
0.490107
0.506934
0.551439
0.583694
0.552699
0.430037
0.243053
0.409523
0.382268
0.410899
0.487009
0.566141
0.594649
0.535898
0.391711
0.216163
0.0963424
0.0991044
0.227065
0.415115
0.568041
0.611791
0.521322
0.328093
0.11774
-0.00507446
0.0234143
0.18974
0.411784
0.585874
0.641239
0.561907
0.384403
0.190302
0.0748544
0.0949823
0.237737
0.430056
0.58303
0.638997
0.586081
0.451376
0.295436
0.193104
0.194483
0.295659
0.441975
0.561942
0.606352
0.562979
0.453266
0.328522
0.252938
0.267268
0.361762
0.48386
0.574963
0.603399
0.568561
0.490849
0.406043
0.353596
0.353552
0.393142
0.439519
0.467802
0.475898
0.472106
0.457001
0.426864
0.390783
0.372127
0.390186
0.444759
0.516695
0.576396
0.588484
0.516928
0.348035
0.122437
-0.0680857
-0.131423
-0.0299066
0.192938
0.423892
0.534949
0.446426
0.165234
-0.202099
-0.491868
-0.574871
-0.415192
-0.0793686
0.28725
0.540418
0.621468
0.566504
0.463082
0.399337
0.418139
0.49617
0.562805
0.548656
0.437805
0.288123
0.196044
0.227749
0.36861
0.524751
0.574372
0.434101
0.112737
-0.268969
-0.536579
-0.56771
-0.352046
0.00306275
0.318305
0.445331
0.346799
0.103633
-0.131205
-0.219045
-0.111126
0.135824
0.400441
0.574263
0.621704
0.57614
0.500204
0.449723
0.447624
0.474388
0.487167
0.459785
0.598006
0.592154
0.548923
0.503091
0.478924
0.481335
0.493109
0.489041
0.461787
0.432032
0.428223
0.459061
0.507834
0.548265
0.560148
0.533291
0.47123
0.39922
0.357174
0.371841
0.435139
0.511369
0.564752
0.579031
0.555184
0.504036
0.447445
0.414194
0.421127
0.458405
0.49862
0.521469
0.526321
0.52169
0.511945
0.499422
0.491169
0.493419
0.501139
0.501681
0.490823
0.478764
0.477277
0.486809
0.499984
0.511558
0.517554
0.509305
0.480685
0.443316
0.424519
0.44436
0.497319
0.557065
0.59414
0.585797
0.51921
0.404276
0.285399
0.223438
0.253684
0.358244
0.478601
0.557626
0.570817
0.526486
0.455117
0.399048
0.391455
0.430422
0.473707
0.469169
0.401762
0.312346
0.268264
0.313073
0.432063
0.552625
0.578217
0.434861
0.118091
-0.275212
-0.58333
-0.675238
-0.511281
-0.156013
0.236356
0.500552
0.555941
0.42992
0.226519
0.0736143
0.0572124
0.179599
0.365967
0.514354
0.562973
0.525488
0.469741
0.463822
0.527339
0.616055
0.64681
0.545236
0.297602
-0.0163365
-0.254076
-0.298699
-0.130297
0.156828
0.397636
0.448609
0.264329
-0.0754996
-0.398121
-0.537344
-0.424231
-0.110391
0.257816
0.519766
0.593188
0.497011
0.320223
0.176706
0.148457
0.243463
0.400063
0.534763
0.628251
0.62581
0.501735
0.334664
0.21603
0.205691
0.30071
0.442821
0.560019
0.609144
0.585321
0.508327
0.414143
0.347162
0.339756
0.391981
0.472144
0.540131
0.570997
0.557301
0.501848
0.421435
0.351005
0.328477
0.368935
0.452648
0.538145
0.587109
0.577321
0.504022
0.387296
0.27647
0.228874
0.273449
0.390273
0.521993
0.608041
0.611845
0.527648
0.384196
0.2442
0.177836
0.220856
0.351451
0.502651
0.601095
0.600442
0.493019
0.316327
0.150128
0.0803611
0.148096
0.323375
0.520044
0.64269
0.629128
0.467894
0.210543
-0.0323621
-0.143665
-0.0681621
0.155084
0.412997
0.585494
0.607715
0.484288
0.28072
0.102275
0.0423157
0.127818
0.304856
0.475373
0.565159
0.567792
0.530896
0.511355
0.535384
0.579428
0.57851
0.460892
0.201677
-0.13301
-0.406363
-0.49421
-0.352644
-0.041437
0.291171
0.483782
0.450859
0.217343
-0.0944178
-0.323705
-0.358176
-0.18353
0.116933
0.405505
0.572761
0.596194
0.530386
0.460084
0.44894
0.502894
0.568853
0.570848
0.465215
0.283046
0.121635
0.0803671
0.189908
0.384534
0.534587
0.517426
0.282983
-0.103289
-0.472699
-0.651053
-0.557149
-0.233797
0.164929
0.449264
0.504045
0.335324
0.053775
-0.17799
-0.231863
-0.0794846
0.201452
0.47483
0.562224
0.539392
0.32747
0.0469302
-0.151961
-0.16699
0.00672974
0.279859
0.520159
0.626929
0.569161
0.381508
0.152227
-0.00842334
-0.0233981
0.112028
0.329468
0.525096
0.615024
0.564873
0.391646
0.163695
-0.0176403
-0.0672316
0.0394632
0.252903
0.471955
0.596579
0.571
0.396945
0.139026
-0.0893692
-0.180813
-0.0906776
0.140499
0.403096
0.574855
0.580481
0.41422
0.14331
-0.108209
-0.218907
-0.134839
0.104079
0.380553
0.560505
0.559558
0.3706
0.0693986
-0.205055
-0.319713
-0.218142
0.0535302
0.363968
0.562103
0.551752
0.324553
-0.0304536
-0.350062
-0.481079
-0.361251
-0.0464839
0.310373
0.5411
0.550866
0.345018
0.0227656
-0.256133
-0.353299
-0.223516
0.0686182
0.383313
0.590461
0.643787
0.581757
0.484857
0.428111
0.43841
0.477045
0.466121
0.349581
0.148194
-0.0420615
-0.113208
-0.0159861
0.205331
0.427787
0.514205
0.385413
0.0641084
-0.319163
-0.5899
-0.629222
-0.421269
-0.0554215
0.305436
0.515577
0.526918
0.393042
0.227223
0.141284
0.185142
0.324495
0.469138
0.535746
0.50546
0.43181
0.395332
0.442201
0.548688
0.631785
0.594349
0.380341
0.0270812
-0.32608
-0.515095
-0.450859
-0.16513
0.195227
0.439921
0.442894
0.200502
-0.166062
-0.465471
-0.54453
-0.363025
-0.0050059
0.357829
0.486559
0.424834
0.135482
-0.229348
-0.480702
-0.495164
-0.265924
0.0984206
0.422245
0.559839
0.460894
0.176195
-0.159492
-0.385442
-0.397994
-0.193155
0.133653
0.428641
0.56044
0.475217
0.205374
-0.135375
-0.393977
-0.456186
-0.295103
0.0195601
0.343304
0.527716
0.491365
0.24326
-0.114909
-0.421556
-0.538627
-0.415248
-0.103637
0.253386
0.488108
0.495124
0.269493
-0.0903569
-0.415075
-0.552039
-0.439449
-0.126631
0.239212
0.481579
0.487723
0.25088
-0.126039
-0.465382
-0.60847
-0.492468
-0.16888
0.209875
0.459726
0.4628
0.214293
-0.173441
-0.511505
-0.635611
-0.486288
-0.129032
0.265973
0.509769
0.494492
0.227498
-0.170502
-0.507901
-0.62509
-0.470504
-0.114277
0.277666
0.534392
0.579591
0.449804
0.256191
0.125704
0.131566
0.253501
0.397643
0.466488
0.43039
0.342173
0.289446
0.32915
0.446887
0.56116
0.567522
0.394926
0.0564864
-0.329626
-0.597466
-0.632333
-0.420369
-0.0547801
0.293016
0.464581
0.400996
0.160995
-0.112239
-0.266866
-0.223451
-0.00609431
0.277328
0.499275
0.591762
0.574184
0.519043
0.497315
0.534001
0.59264
0.596903
0.479992
0.242071
-0.0250203
-0.185981
-0.151088
0.0642176
0.338613
0.508635
0.457625
0.173244
-0.231504
-0.563459
-0.662998
-0.483529
-0.107644
0.279134
0.467324
0.365561
0.0336143
-0.36655
-0.634942
-0.645277
-0.392396
0.00780625
0.361109
0.500615
0.367293
0.0236703
-0.367076
-0.619401
-0.622535
-0.376567
0.00971834
0.356657
0.507563
0.399865
0.0777021
-0.317733
-0.607414
-0.668061
-0.475705
-0.109353
0.266767
0.48125
0.441653
0.162721
-0.234946
-0.568872
-0.691413
-0.552239
-0.208151
0.18616
0.445368
0.452526
0.204224
-0.187502
-0.536032
-0.679603
-0.555857
-0.21686
0.181791
0.450293
0.467351
0.2269
-0.161476
-0.512596
-0.663922
-0.551807
-0.226515
0.160341
0.423473
0.445272
0.224003
-0.128849
-0.433307
-0.535746
-0.383521
-0.0436369
0.321201
0.535242
0.498266
0.216991
-0.190611
-0.534113
-0.654006
-0.498606
-0.139986
0.24764
0.478113
0.46063
0.233565
-0.062462
-0.257149
-0.244988
-0.0356881
0.259156
0.497788
0.601615
0.588716
0.533978
0.50943
0.540131
0.590127
0.583786
0.452238
0.188234
-0.123325
-0.344361
-0.36968
-0.185027
0.120359
0.387367
0.470091
0.311527
-0.0260916
-0.381769
-0.583597
-0.541069
-0.273781
0.0993458
0.415553
0.565492
0.544217
0.427748
0.320966
0.299691
0.368769
0.464095
0.49944
0.431591
0.298526
0.195358
0.204266
0.333359
0.505815
0.603465
0.529947
0.2622
-0.115048
-0.43387
-0.542273
-0.38898
-0.0495902
0.297975
0.517189
0.395986
0.0743388
-0.30374
-0.554261
-0.558755
-0.314594
0.0638245
0.390346
0.507748
0.361558
0.014896
-0.370117
-0.611167
-0.602333
-0.348794
0.037283
0.377653
0.521386
0.411562
0.0948414
-0.288978
-0.565046
-0.614739
-0.418632
-0.0585424
0.304954
0.510473
0.474781
0.214671
-0.156389
-0.467429
-0.578481
-0.442552
-0.117287
0.249543
0.487821
0.49348
0.265123
-0.0953512
-0.417217
-0.549364
-0.432873
-0.118784
0.247592
0.495965
0.521319
0.319602
-0.0156705
-0.325096
-0.463497
-0.371094
-0.0926192
0.239822
0.471509
0.508376
0.35112
0.0870426
-0.144803
-0.222672
-0.103909
0.156533
0.431807
0.589237
0.550836
0.316374
-0.0255646
-0.319365
-0.42425
-0.290662
0.0138782
0.327249
0.476568
0.37321
0.0567074
-0.316054
-0.553149
-0.536765
-0.272165
0.118761
0.460564
0.634963
0.636008
0.537938
0.438469
0.406767
0.447326
0.501439
0.489905
0.374259
0.195132
0.0515499
0.0336635
0.162341
0.370158
0.532104
0.530155
0.312767
-0.0652665
-0.448189
-0.665415
-0.626301
-0.349519
0.0415235
0.36779
0.497544
0.411552
0.194708
-0.0123012
-0.0885639
0.00316428
0.205591
0.407633
0.5177
0.521124
0.474885
0.453788
0.49563
0.578013
0.633348
0.586834
0.402029
0.122464
-0.130602
-0.228595
-0.118083
0.14233
0.405644
0.589649
0.484319
0.230457
-0.0682991
-0.267482
-0.267129
-0.065781
0.237212
0.490469
0.572417
0.442526
0.151827
-0.168031
-0.364427
-0.346424
-0.123437
0.201209
0.478283
0.591052
0.499907
0.244144
-0.0654141
-0.287005
-0.320682
-0.152769
0.141316
0.428904
0.58802
0.56084
0.362561
0.0778087
-0.163048
-0.247262
-0.136235
0.118683
0.39806
0.575441
0.578199
0.40697
0.135098
-0.111074
-0.213146
-0.123061
0.115547
0.388594
0.573117
0.598756
0.464765
0.233812
0.0141723
-0.0895729
-0.0312457
0.1565
0.381268
0.542969
0.585035
0.508415
0.361704
0.222497
0.162488
0.211125
0.342804
0.492537
0.588625
0.579339
0.449163
0.23847
0.0439652
-0.0301741
0.0615293
0.270956
0.472868
0.529739
0.364299
0.00910349
-0.386652
-0.635043
-0.619937
-0.345825
0.0625524
0.415624
0.574412
0.519581
0.333342
0.146519
0.0709071
0.141262
0.303157
0.453507
0.512605
0.476084
0.406564
0.381027
0.43658
0.544944
0.626596
0.592514
0.392153
0.0585529
-0.282518
-0.479759
-0.445976
-0.19833
0.143012
0.405521
0.458645
0.278057
-0.0447614
-0.343296
-0.468394
-0.363731
-0.0796972
0.254103
0.501089
0.59888
0.574782
0.503201
0.45623
0.467131
0.515479
0.542624
0.493475
0.364466
0.21979
0.15109
0.210123
0.368275
0.530242
0.604392
0.551256
0.410762
0.234879
0.11234
0.112554
0.2391
0.426339
0.578929
0.623838
0.536907
0.348621
0.141308
0.0158898
0.0348762
0.18761
0.398261
0.570071
0.636262
0.578769
0.423175
0.235057
0.101053
0.0850534
0.192896
0.370616
0.535851
0.622959
0.606222
0.496712
0.339238
0.204959
0.159731
0.226064
0.369738
0.520274
0.611672
0.610694
0.519743
0.375211
0.242316
0.186651
0.235241
0.360159
0.49761
0.588369
0.605022
0.550636
0.451156
0.351374
0.298086
0.313288
0.382269
0.467828
0.537104
0.575563
0.580796
0.555252
0.507887
0.453802
0.409146
0.388906
0.403956
0.450467
0.500472
0.512887
0.468378
0.395818
0.355645
0.391659
0.492095
0.58751
0.585131
0.41936
0.103733
-0.246193
-0.469241
-0.458119
-0.216518
0.135679
0.416954
0.490282
0.333257
0.0395263
-0.2297
-0.333487
-0.221714
0.0493425
0.349475
0.55413
0.618316
0.580331
0.516291
0.491283
0.524278
0.578765
0.584734
0.482831
0.273556
0.0371438
-0.108649
-0.0843371
0.101237
0.347987
0.512268
0.481217
0.228278
-0.159882
-0.511786
-0.669896
-0.569837
-0.254614
0.139556
0.447274
0.570772
0.515442
0.36057
0.214679
0.163323
0.226354
0.35431
0.466185
0.506842
0.48314
0.448244
0.452643
0.506176
0.574805
0.487516
0.513881
0.511388
0.475978
0.43627
0.42693
0.45812
0.510718
0.555104
0.569378
0.543773
0.482733
0.411098
0.367082
0.37611
0.43042
0.49647
0.542152
0.555505
0.539954
0.50329
0.458811
0.427884
0.427952
0.456299
0.491258
0.512228
0.515875
0.5106
0.501517
0.488711
0.476829
0.475538
0.487241
0.501249
0.505506
0.500425
0.495331
0.494333
0.493395
0.490536
0.489885
0.492043
0.488355
0.472728
0.455449
0.456205
0.482712
0.521573
0.550453
0.553526
0.524666
0.468023
0.405559
0.37527
0.406504
0.491501
0.582624
0.619799
0.564739
0.42353
0.25436
0.145106
0.158201
0.284845
0.449962
0.56788
0.602403
0.578702
0.549169
0.549864
0.573043
0.568229
0.47511
0.277321
0.0391999
-0.121978
-0.114749
0.0627699
0.310737
0.476901
0.442476
0.187347
-0.188404
-0.508686
-0.624067
-0.482808
-0.143472
0.245124
0.523194
0.614393
0.544272
0.40148
0.289096
0.273607
0.351811
0.458219
0.510539
0.468576
0.364694
0.279734
0.284289
0.388968
0.532863
0.614509
0.542859
0.285365
-0.0929891
-0.440953
-0.608025
-0.52551
-0.229684
0.146223
0.431344
0.512782
0.381227
0.121092
-0.126843
-0.235853
-0.157034
0.0664582
0.328084
0.52047
0.596827
0.578789
0.520504
0.473068
0.46376
0.215432
0.334751
0.476025
0.576588
0.608464
0.576791
0.502664
0.416808
0.356242
0.348883
0.395789
0.469972
0.535454
0.567955
0.557496
0.502487
0.415432
0.330744
0.291806
0.322634
0.410127
0.512266
0.584322
0.597853
0.54294
0.431729
0.306153
0.225839
0.233627
0.327477
0.460893
0.57146
0.613527
0.570254
0.454385
0.311707
0.209358
0.200124
0.289894
0.43356
0.56191
0.618553
0.57807
0.449523
0.282278
0.155675
0.137531
0.241302
0.41508
0.570389
0.63072
0.563006
0.388468
0.185057
0.0590657
0.0824859
0.243684
0.447928
0.569573
0.522065
0.304836
0.0159909
-0.190349
-0.198386
-0.00332474
0.28792
0.527908
0.624513
0.581552
0.472668
0.388
0.378568
0.426073
0.462812
0.432123
0.341665
0.260398
0.261624
0.361459
0.497394
0.55972
0.453041
0.156817
-0.23775
-0.562447
-0.674119
-0.524626
-0.174992
0.218768
0.482775
0.525286
0.367367
0.117284
-0.0822297
-0.126642
0.00143762
0.231515
0.44843
0.565148
0.571457
0.521471
0.486027
0.506871
0.571951
0.621519
0.580106
0.402236
0.117795
-0.162549
-0.309313
-0.251848
-0.0161324
0.280491
0.485154
0.48911
0.273526
-0.0778496
-0.40579
-0.561163
-0.47965
-0.197385
0.164476
0.456755
0.586767
0.551213
0.411737
0.260726
0.182778
-0.148861
0.0559857
0.326361
0.543544
0.627742
0.561011
0.378871
0.161384
0.00765637
-0.0116943
0.110444
0.314852
0.506739
0.604796
0.570018
0.409294
0.179267
-0.0234751
-0.106674
-0.0303379
0.172931
0.410578
0.576876
0.602408
0.472013
0.229495
-0.0252179
-0.176812
-0.155044
0.0314368
0.296686
0.518108
0.599629
0.507279
0.275195
0.00235343
-0.184632
-0.197408
-0.0287045
0.243427
0.49098
0.602348
0.528203
0.292862
-0.00461093
-0.224306
-0.259515
-0.0917606
0.19851
0.467099
0.582513
0.48696
0.216524
-0.102156
-0.306439
-0.291619
-0.0692808
0.234266
0.441361
0.424448
0.176601
-0.176322
-0.437657
-0.460339
-0.231764
0.122141
0.412492
0.508425
0.404803
0.2043
0.049794
0.0394006
0.172352
0.360687
0.499736
0.544195
0.525605
0.509049
0.535374
0.587983
0.599991
0.494883
0.243516
-0.0904822
-0.368699
-0.462981
-0.327647
-0.0228667
0.302437
0.484792
0.43406
0.171338
-0.1781
-0.443753
-0.502514
-0.329548
-0.000614579
0.339798
0.56042
0.616205
0.548213
0.441597
0.378952
0.39772
0.471029
0.526475
0.495206
0.365133
0.198721
0.0943983
0.120874
0.271632
0.463005
0.576867
0.518395
0.259617
-0.128758
-0.490715
-0.672442
-0.602124
-0.308892
0.0826245
0.401864
0.527159
0.436855
0.200186
-0.0533345
-0.192408
-0.471483
-0.210962
0.148841
0.446747
0.559939
0.452426
0.175462
-0.146388
-0.365878
-0.386535
-0.200667
0.10899
0.401769
0.550225
0.493669
0.248787
-0.0894172
-0.375557
-0.486095
-0.374393
-0.085184
0.255108
0.494207
0.530204
0.344784
0.00845924
-0.333616
-0.529396
-0.495623
-0.245205
0.113336
0.415558
0.526517
0.398772
0.0837644
-0.278468
-0.520817
-0.535973
-0.316063
0.0441122
0.377961
0.532129
0.438203
0.132059
-0.250287
-0.528455
-0.574846
-0.368269
-0.00171227
0.346945
0.506729
0.400658
0.0744629
-0.313218
-0.565867
-0.560976
-0.305996
0.0630019
0.341777
0.377175
0.154261
-0.195637
-0.465861
-0.500674
-0.284067
0.0538091
0.312082
0.347678
0.158786
-0.124375
-0.322172
-0.312945
-0.0953378
0.219053
0.480979
0.6031
0.596876
0.535697
0.495369
0.505492
0.532795
0.50757
0.380806
0.17574
-0.0128988
-0.0801879
0.0192097
0.238504
0.455881
0.537019
0.402548
0.070972
-0.330089
-0.623743
-0.685505
-0.491191
-0.119933
0.266951
0.5101
0.541626
0.399062
0.191342
0.0452574
0.0407251
0.172711
0.361002
0.502454
0.538838
0.488716
0.422344
0.408716
0.470854
0.570817
0.62946
0.56531
0.338019
-0.00861393
-0.344504
-0.5253
-0.473744
-0.211569
0.141915
0.418734
0.491599
0.328643
0.00240304
-0.332982
-0.518589
-0.62481
-0.347308
0.0461551
0.374473
0.491362
0.350756
0.0155604
-0.36111
-0.60731
-0.619416
-0.393262
-0.0233456
0.325683
0.50155
0.433526
0.146383
-0.242332
-0.562931
-0.680944
-0.550427
-0.22125
0.166637
0.440069
0.482413
0.275171
-0.0975325
-0.470598
-0.679143
-0.638025
-0.362354
0.0323139
0.366138
0.488779
0.347598
0.00150106
-0.393043
-0.654631
-0.671023
-0.434137
-0.0425081
0.324555
0.497853
0.401438
0.075258
-0.332118
-0.627727
-0.678423
-0.461685
-0.0717581
0.305315
0.486909
0.389626
0.0594211
-0.340701
-0.607975
-0.613725
-0.358745
0.0270572
0.341538
0.430339
0.272693
-0.017432
-0.256152
-0.300091
-0.132796
0.126023
0.293156
0.240611
-0.0216373
-0.349079
-0.553197
-0.515346
-0.244212
0.130003
0.430397
0.546582
0.486019
0.343675
0.23683
0.236504
0.330068
0.43886
0.480672
0.433012
0.346441
0.301392
0.347781
0.468382
0.584695
0.597979
0.439088
0.114983
-0.266455
-0.544238
-0.600229
-0.411801
-0.0601839
0.291449
0.48039
0.431893
0.184955
-0.127912
-0.345008
-0.360932
-0.169686
0.13972
0.428876
0.593232
0.615676
0.550657
0.477961
0.458465
0.502047
0.562329
0.56296
0.445084
0.216875
-0.0323862
-0.181315
-0.151426
0.0473805
0.315146
0.509068
0.51542
0.297542
-0.0787424
-0.455579
-0.666622
-0.549447
-0.290068
0.0803484
0.385984
0.484799
0.331808
-0.00903598
-0.382806
-0.61833
-0.616207