# vtk DataFile Version 3.0
PFC simulation results
ASCII
DATASET STRUCTURED_POINTS
DIMENSIONS 128 128 1
ORIGIN 0 0 0
SPACING 1 1 1
POINT_DATA 16384
SCALARS psi double
LOOKUP_TABLE default
0.245696
0.476894
0.462245
0.196885
-0.202963
-0.54469
-0.66592
-0.511792
-0.150553
0.245969
0.48722
0.466489
0.198119
-0.188595
-0.501818
-0.590996
-0.416698
-0.0622536
0.295997
0.479689
0.40045
0.0913834
-0.30173
-0.587124
-0.632027
-0.417019
-0.0413662
0.310428
0.465575
0.351764
0.0229225
-0.358245
-0.599898
-0.585881
-0.323757
0.0562981
0.356777
0.422919
0.219856
-0.154207
-0.510422
-0.672699
-0.562496
-0.219951
0.205297
0.522441
0.603368
0.423318
0.0599771
-0.317552
-0.525679
-0.470675
-0.192078
0.156328
0.386476
0.380453
0.142592
-0.205135
-0.482643
-0.554176
-0.393196
-0.0810256
0.241984
0.463565
0.559159
0.56715
0.522535
0.420304
0.234171
-0.0337952
-0.324114
-0.543791
-0.615667
-0.507548
-0.244343
0.0874474
0.373067
0.534267
0.562767
0.504392
0.425871
0.382623
0.395126
0.443871
0.485022
0.478147
0.410131
0.30062
0.186045
0.0938401
0.0275298
-0.0246435
-0.0672858
-0.0847078
-0.0514777
0.0405191
0.161588
0.249409
0.238756
0.0999538
-0.132229
-0.36311
-0.485139
-0.432498
-0.210397
0.100673
0.379399
0.534892
0.553398
0.487108
0.413273
0.388873
0.418038
0.454697
0.444509
0.376698
0.29955
0.282113
0.355403
0.480631
0.566442
0.519422
0.298289
-0.0436012
-0.364044
-0.512009
-0.41433
-0.112421
0.384767
0.539319
0.492358
0.234703
-0.136729
-0.45118
-0.559591
-0.411055
-0.07288
0.290153
0.498025
0.44972
0.160649
-0.23782
-0.551946
-0.633152
-0.446351
-0.0794309
0.287
0.472917
0.392771
0.0852639
-0.299582
-0.570618
-0.600295
-0.376536
-0.0042853
0.33322
0.471561
0.348392
0.0250857
-0.334334
-0.544757
-0.501453
-0.223946
0.151838
0.436538
0.491331
0.289958
-0.0738305
-0.422016
-0.58607
-0.489934
-0.172583
0.224495
0.524669
0.611456
0.46281
0.146222
-0.189643
-0.376859
-0.324219
-0.066252
0.253447
0.460146
0.442762
0.200854
-0.153617
-0.445426
-0.534725
-0.386674
-0.0763148
0.25599
0.491068
0.594509
0.597301
0.533936
0.407328
0.204464
-0.0605609
-0.324584
-0.501893
-0.529293
-0.389942
-0.122207
0.181203
0.408911
0.488622
0.417474
0.255133
0.0939623
0.0147831
0.051061
0.17969
0.337086
0.456174
0.504513
0.49371
0.457674
0.422751
0.391743
0.350828
0.29149
0.227408
0.18978
0.202211
0.254337
0.296137
0.260388
0.103752
-0.154018
-0.42408
-0.592063
-0.576778
-0.366798
-0.0369812
0.274005
0.44155
0.425226
0.278449
0.11329
0.0384009
0.0981047
0.253867
0.418289
0.519136
0.54543
0.537977
0.542733
0.571794
0.594455
0.555648
0.413566
0.184162
-0.0444138
-0.158664
-0.0928516
0.126383
0.519793
0.597188
0.549174
0.359594
0.0867016
-0.148645
-0.229593
-0.112328
0.147881
0.419381
0.563534
0.502603
0.248297
-0.0927331
-0.358019
-0.41921
-0.248011
0.0726543
0.3847
0.539745
0.472103
0.217406
-0.099315
-0.318051
-0.330729
-0.132555
0.178454
0.4481
0.549133
0.439579
0.174181
-0.112642
-0.269959
-0.214584
0.0275226
0.335682
0.559659
0.599163
0.439161
0.15059
-0.13084
-0.269887
-0.202797
0.0363031
0.333409
0.556318
0.622791
0.519325
0.294457
0.0543158
-0.0763335
-0.0260828
0.177731
0.422892
0.577256
0.557272
0.35975
0.0674128
-0.180648
-0.265206
-0.153914
0.0874365
0.338763
0.504045
0.562217
0.547175
0.492903
0.402084
0.260144
0.0736858
-0.109413
-0.220778
-0.210414
-0.0717544
0.150293
0.368377
0.486751
0.444308
0.243817
-0.0391768
-0.284923
-0.391667
-0.320412
-0.102823
0.172686
0.404726
0.536707
0.576444
0.568984
0.557193
0.556483
0.554062
0.529632
0.479889
0.426079
0.397532
0.403933
0.418433
0.3862
0.257603
0.0300933
-0.231749
-0.422759
-0.452963
-0.29539
-0.0127165
0.258471
0.381481
0.297865
0.0576888
-0.203163
-0.33773
-0.270361
-0.0293914
0.273535
0.510732
0.6159
0.604831
0.539829
0.484474
0.469262
0.477437
0.463652
0.398993
0.305901
0.246425
0.272669
0.383539
0.535523
0.554574
0.541235
0.468376
0.344661
0.225161
0.17956
0.242075
0.38525
0.534422
0.60988
0.56334
0.396586
0.172271
-0.00373348
-0.0410231
0.0807538
0.300123
0.508249
0.610337
0.567565
0.40415
0.200113
0.0604224
0.0580488
0.192737
0.393214
0.559136
0.61568
0.542285
0.375179
0.197951
0.105448
0.148836
0.305213
0.493819
0.626042
0.649574
0.559206
0.393383
0.226737
0.138378
0.166864
0.289373
0.439271
0.548858
0.581988
0.534883
0.429275
0.314809
0.255772
0.292277
0.40942
0.544799
0.627101
0.611402
0.494396
0.320616
0.171446
0.120936
0.186131
0.315085
0.425022
0.46384
0.441465
0.404895
0.387586
0.381812
0.355176
0.290978
0.211427
0.163945
0.188197
0.290397
0.434778
0.553217
0.569815
0.431148
0.140224
-0.219104
-0.511293
-0.625499
-0.524266
-0.249088
0.0904951
0.365332
0.500699
0.506913
0.45174
0.410782
0.424514
0.482751
0.5433
0.568923
0.554429
0.524603
0.508468
0.511403
0.504905
0.443493
0.301999
0.107772
-0.0619762
-0.121806
-0.0321306
0.164748
0.353819
0.407969
0.26024
-0.0503997
-0.383693
-0.57477
-0.528216
-0.258975
0.113252
0.422893
0.557965
0.511332
0.360224
0.217471
0.171871
0.241556
0.37324
0.488084
0.53999
0.53791
0.520221
0.517653
0.364847
0.345016
0.392353
0.462284
0.506769
0.511167
0.495699
0.487385
0.497669
0.520783
0.540893
0.537396
0.494664
0.420471
0.352152
0.332252
0.375091
0.457338
0.537393
0.581836
0.576482
0.525761
0.454212
0.400704
0.395172
0.437288
0.499395
0.548851
0.566471
0.548269
0.502394
0.450822
0.422562
0.433031
0.471427
0.512627
0.539357
0.54892
0.542879
0.521821
0.492395
0.467947
0.455111
0.446313
0.4323
0.418143
0.418759
0.438879
0.465545
0.483823
0.492783
0.500134
0.508045
0.512049
0.508926
0.497893
0.477903
0.452646
0.436639
0.445115
0.471167
0.478097
0.426793
0.318231
0.205093
0.155239
0.19967
0.309204
0.418793
0.478653
0.485181
0.470726
0.473898
0.514829
0.582266
0.633672
0.608255
0.452603
0.160905
-0.191592
-0.473269
-0.573686
-0.457689
-0.175689
0.149441
0.377583
0.42964
0.324096
0.157097
0.0447876
0.0574167
0.186931
0.362127
0.498147
0.549694
0.529825
0.488175
0.471375
0.489791
0.511831
0.492577
0.416133
0.31674
0.258878
0.289207
0.394813
0.499215
0.501067
0.331968
0.0100048
-0.344374
-0.569949
-0.560184
-0.315616
0.049085
0.354808
0.46313
0.348291
0.0977018
-0.135279
-0.215236
-0.0967257
0.160468
0.431658
0.605602
0.642769
0.571358
0.455301
0.0356326
-0.0111829
0.10416
0.316189
0.518395
0.629138
0.626037
0.534973
0.410299
0.316613
0.299888
0.361678
0.460235
0.54146
0.57379
0.55555
0.501096
0.433639
0.384357
0.380752
0.427685
0.500829
0.562672
0.5859
0.561427
0.495407
0.411133
0.347194
0.338393
0.391412
0.478057
0.553535
0.58206
0.547727
0.456819
0.343517
0.263173
0.262034
0.345757
0.473389
0.582279
0.622018
0.569798
0.434318
0.263529
0.134835
0.113321
0.209484
0.371005
0.515719
0.580499
0.545688
0.432632
0.294905
0.198278
0.187637
0.265044
0.393563
0.520582
0.601696
0.605002
0.506821
0.309194
0.0677123
-0.119106
-0.164397
-0.0447034
0.183737
0.416667
0.568265
0.614332
0.583113
0.525872
0.491388
0.502812
0.542196
0.55458
0.476483
0.28261
0.0227402
-0.193857
-0.265172
-0.156117
0.0815306
0.327058
0.448867
0.374198
0.129828
-0.163165
-0.35422
-0.350799
-0.160479
0.119554
0.355865
0.457811
0.42322
0.324216
0.255956
0.276808
0.375755
0.489624
0.555375
0.556394
0.527046
0.517042
0.547743
0.590786
0.57999
0.45088
0.19423
-0.110558
-0.32837
-0.351517
-0.165628
0.131288
0.372059
0.416021
0.225833
-0.110199
-0.417193
-0.533891
-0.397786
-0.0675688
0.30326
0.551537
0.595553
0.454783
0.224691
-0.323819
-0.390158
-0.222161
0.0998784
0.422155
0.604914
0.590546
0.40839
0.156039
-0.0371222
-0.0739888
0.0607723
0.296297
0.516851
0.627588
0.592306
0.43262
0.220611
0.0571713
0.0230086
0.134598
0.334276
0.521121
0.606326
0.550519
0.372888
0.149621
-0.0129955
-0.0339704
0.0980142
0.316755
0.512362
0.590084
0.509557
0.296504
0.041893
-0.132931
-0.140957
0.0252231
0.28784
0.521277
0.618077
0.531811
0.28851
-0.0110232
-0.226847
-0.255809
-0.0863003
0.195143
0.447345
0.553209
0.471569
0.242929
-0.025891
-0.208287
-0.222263
-0.063592
0.198426
0.454082
0.606559
0.602317
0.428883
0.124755
-0.205704
-0.428587
-0.450509
-0.260789
0.0604157
0.375258
0.567354
0.597768
0.498387
0.344305
0.224043
0.199383
0.273162
0.387363
0.456645
0.425094
0.308455
0.185543
0.144087
0.222598
0.383428
0.528093
0.546326
0.372941
0.035011
-0.336944
-0.576227
-0.580442
-0.357762
-0.0214978
0.260799
0.363224
0.270627
0.0762916
-0.0772301
-0.0840835
0.0677841
0.301101
0.50512
0.608034
0.611147
0.567045
0.533984
0.536241
0.547557
0.51034
0.385589
0.199613
0.0416896
0.00544184
0.119868
0.318485
0.469596
0.450502
0.217237
-0.155898
-0.49888
-0.645309
-0.522985
-0.183338
0.212109
0.473254
0.489779
0.273085
-0.056711
-0.552405
-0.631484
-0.440688
-0.0649869
0.316436
0.525762
0.480278
0.214239
-0.13776
-0.398452
-0.441256
-0.246568
0.0934473
0.415506
0.574046
0.508115
0.251487
-0.0774621
-0.321343
-0.365249
-0.190355
0.118046
0.406818
0.536412
0.446215
0.172574
-0.159457
-0.390281
-0.410525
-0.209931
0.117041
0.409861
0.526925
0.410758
0.105944
-0.249937
-0.488254
-0.499054
-0.275407
0.0830142
0.406815
0.54551
0.436285
0.121506
-0.257005
-0.51841
-0.541688
-0.318474
0.0439352
0.366386
0.495487
0.376621
0.0657774
-0.291544
-0.529344
-0.54639
-0.338378
0.00825926
0.34862
0.550548
0.546618
0.334624
-0.019554
-0.380363
-0.598801
-0.58737
-0.349878
0.0165306
0.354868
0.532785
0.503255
0.303892
0.0372198
-0.167509
-0.215953
-0.0907116
0.144677
0.377381
0.512616
0.530599
0.483861
0.449834
0.47876
0.562305
0.635774
0.610958
0.424438
0.0904861
-0.275098
-0.512231
-0.516924
-0.295919
0.0327827
0.291535
0.342385
0.164058
-0.136771
-0.384106
-0.438089
-0.267304
0.0457698
0.352481
0.528128
0.539915
0.443492
0.336134
0.297718
0.344102
0.424519
0.467428
0.441201
0.379981
0.352252
0.400687
0.502351
0.576599
0.530595
0.316027
-0.0220963
-0.345705
-0.501685
-0.412366
-0.117638
0.232101
0.450923
0.421278
0.147363
-0.242243
-0.54921
-0.633243
-0.449933
-0.0819362
0.2899
0.480297
0.398425
0.0810169
-0.319235
-0.605219
-0.643399
-0.416463
-0.0266258
0.339566
0.510098
0.412245
0.0914123
-0.302047
-0.579551
-0.615182
-0.394978
-0.0204369
0.326034
0.476578
0.361404
0.0315346
-0.356446
-0.615121
-0.626278
-0.384142
0.00253192
0.347807
0.486902
0.355934
0.0112661
-0.386218
-0.648066
-0.658116
-0.411377
-0.0151893
0.344488
0.500396
0.385117
0.0503208
-0.345673
-0.610137
-0.620957
-0.37478
0.0131494
0.353415
0.485068
0.352522
0.0176415
-0.362994
-0.613678
-0.63027
-0.41034
-0.0452736
0.311811
0.522019
0.518711
0.308097
-0.0338277
-0.368123
-0.552242
-0.510405
-0.258884
0.0967454
0.400269
0.523835
0.419833
0.128372
-0.228876
-0.495484
-0.55995
-0.397573
-0.0734095
0.278383
0.526248
0.618373
0.589947
0.519822
0.482446
0.50829
0.566428
0.581957
0.482737
0.257089
-0.0150381
-0.200729
-0.201467
-0.0166452
0.248723
0.435117
0.41614
0.168035
-0.205366
-0.518826
-0.617237
-0.456841
-0.11848
0.228589
0.422207
0.400966
0.222579
0.0209802
-0.0719648
-0.00128297
0.189704
0.3976
0.531818
0.570935
0.557583
0.548892
0.569951
0.596581
0.570405
0.43991
0.211612
-0.0289979
-0.162023
-0.111712
0.100503
0.356577
0.503678
0.436904
0.151803
-0.238232
-0.31437
-0.392136
-0.242218
0.0635308
0.367096
0.507707
0.404137
0.0884444
-0.29724
-0.566859
-0.594598
-0.367507
0.0108524
0.357562
0.506916
0.390806
0.0586416
-0.334963
-0.601065
-0.618867
-0.381837
0.00195548
0.34799
0.49228
0.371229
0.0404972
-0.34173
-0.589785
-0.589674
-0.340999
0.0440825
0.382933
0.519794
0.398169
0.0738779
-0.300891
-0.547342
-0.554444
-0.319729
0.0513289
0.384285
0.527947
0.424977
0.125254
-0.227365
-0.458349
-0.457018
-0.224896
0.126908
0.428074
0.541701
0.424202
0.130866
-0.202785
-0.422393
-0.434716
-0.240628
0.0734397
0.373366
0.545357
0.539995
0.368309
0.0958655
-0.163927
-0.295239
-0.238239
-0.0152735
0.275809
0.5032
0.561829
0.408046
0.0751872
-0.317039
-0.608062
-0.682339
-0.51161
-0.1597
0.22942
0.502666
0.586386
0.505415
0.349925
0.228935
0.215055
0.305739
0.4283
0.488222
0.436124
0.306914
0.19655
0.192836
0.312819
0.486563
0.595051
0.535408
0.278567
-0.0946282
-0.417672
-0.537674
-0.403496
-0.0905149
0.229943
0.384237
0.296322
0.0235902
-0.274883
-0.430596
-0.360336
-0.0973463
0.23386
0.491004
0.600738
0.582661
0.509808
0.456101
0.454632
0.48173
0.480791
0.414745
0.306424
0.227458
0.242525
0.356193
0.502082
0.579704
0.508601
0.273186
-0.0495196
0.0522517
-0.00578893
0.0901205
0.293135
0.492689
0.575302
0.479783
0.225258
-0.0829448
-0.297604
-0.313397
-0.121155
0.186932
0.459364
0.566133
0.456203
0.171774
-0.158672
-0.37555
-0.375553
-0.158976
0.171908
0.459088
0.572883
0.468093
0.192895
-0.123372
-0.325995
-0.317818
-0.103189
0.216024
0.489479
0.599073
0.506462
0.256054
-0.0362725
-0.229872
-0.233221
-0.0466687
0.239594
0.48978
0.595314
0.519284
0.300399
0.0432082
-0.123219
-0.114966
0.0626373
0.319938
0.533141
0.611906
0.532082
0.333192
0.106142
-0.0434054
-0.0502345
0.0804105
0.282039
0.465319
0.56493
0.558447
0.456048
0.295654
0.143574
0.0720201
0.120375
0.27207
0.460221
0.597966
0.612317
0.463302
0.165669
-0.188492
-0.459172
-0.535091
-0.383964
-0.0663703
0.27686
0.493027
0.500548
0.317854
0.049618
-0.160067
-0.203686
-0.063498
0.185446
0.418631
0.540718
0.542047
0.486758
0.456893
0.496785
0.585821
0.651638
0.612435
0.427543
0.140278
-0.124744
-0.234424
-0.134002
0.115018
0.361018
0.445832
0.292547
-0.0489449
-0.415628
-0.624193
-0.575792
-0.292748
0.0934465
0.406912
0.533408
0.472171
0.311263
0.172032
0.14265
0.231734
0.374666
0.486952
0.526125
0.512481
0.496886
0.513901
0.557705
0.587557
0.551653
0.421497
0.226042
0.394587
0.363726
0.394026
0.47625
0.563308
0.598727
0.54389
0.399078
0.217504
0.0876815
0.0805345
0.203726
0.395477
0.559801
0.618523
0.541424
0.354134
0.137837
-0.00129866
0.00825264
0.162335
0.384276
0.568522
0.63723
0.5674
0.39094
0.188584
0.0599632
0.0694337
0.209943
0.409207
0.57327
0.637312
0.584924
0.443034
0.276107
0.165132
0.164965
0.272437
0.429731
0.560526
0.61217
0.571615
0.460838
0.331928
0.250316
0.258772
0.349893
0.472501
0.567256
0.600305
0.568946
0.49196
0.40439
0.346977
0.342983
0.382779
0.434221
0.470015
0.484912
0.486414
0.476314
0.451064
0.417793
0.398096
0.412081
0.462525
0.532557
0.591539
0.599999
0.518018
0.332004
0.0879068
-0.115237
-0.181038
-0.0722315
0.163343
0.405959
0.522703
0.434002
0.151822
-0.210964
-0.488353
-0.554582
-0.380702
-0.0410438
0.316015
0.552296
0.619782
0.562455
0.469116
0.421521
0.451441
0.525937
0.571643
0.525742
0.386861
0.228067
0.150698
0.210922
0.374998
0.532918
0.559895
0.384231
0.0369083
-0.340937
-0.573073
-0.553264
-0.29379
0.0766953
0.372165
0.458007
0.318381
0.0519851
-0.180831
-0.247815
-0.114076
0.150833
0.419325
0.58595
0.622912
0.56972
0.491774
0.444503
0.447432
0.476527
0.486388
0.452027
0.594281
0.584966
0.543536
0.503356
0.485241
0.491013
0.502331
0.494544
0.461619
0.426052
0.418488
0.449306
0.501805
0.54806
0.565952
0.543805
0.483212
0.407422
0.356936
0.362725
0.421839
0.500625
0.56079
0.581389
0.559803
0.505526
0.441562
0.40041
0.403729
0.444592
0.494236
0.527173
0.537141
0.529954
0.511292
0.487957
0.472325
0.473898
0.487256
0.496426
0.493206
0.485465
0.48495
0.493275
0.50423
0.51347
0.517846
0.509301
0.481568
0.445281
0.426719
0.445619
0.496815
0.554825
0.591652
0.586206
0.526091
0.419006
0.305335
0.243298
0.269184
0.368526
0.485469
0.562936
0.575287
0.531176
0.462968
0.413434
0.412437
0.452333
0.486691
0.464244
0.376192
0.271651
0.223665
0.276118
0.409183
0.542414
0.573322
0.427162
0.104048
-0.292101
-0.595352
-0.675812
-0.498464
-0.134254
0.258156
0.515849
0.565449
0.440494
0.246585
0.107737
0.102255
0.224519
0.396132
0.519302
0.542996
0.492383
0.440564
0.45051
0.528782
0.618465
0.631792
0.500733
0.228099
-0.087873
-0.299324
-0.301415
-0.0952193
0.205197
0.428317
0.441675
0.219966
-0.137339
-0.44926
-0.558516
-0.412627
-0.0781615
0.290207
0.535742
0.587919
0.476119
0.295289
0.15932
0.143991
0.249035
0.407814
0.537711
0.632209
0.62611
0.503878
0.342132
0.228058
0.218236
0.309535
0.446196
0.559269
0.60738
0.585743
0.512555
0.421043
0.353575
0.342972
0.391638
0.469811
0.53745
0.568976
0.557335
0.506013
0.430791
0.364022
0.341529
0.37814
0.455567
0.534815
0.58038
0.57235
0.506452
0.400264
0.298398
0.254044
0.294793
0.402539
0.52406
0.603139
0.605344
0.52408
0.385334
0.248966
0.183782
0.226006
0.355217
0.505614
0.604314
0.604926
0.499362
0.324265
0.158398
0.0873242
0.152638
0.325443
0.520913
0.645099
0.636841
0.483949
0.234509
-0.00550431
-0.121014
-0.0549524
0.157748
0.407609
0.575453
0.59571
0.473867
0.277789
0.11249
0.0662355
0.158642
0.330801
0.485931
0.557113
0.546601
0.50751
0.496631
0.534436
0.589118
0.589771
0.463886
0.190916
-0.155635
-0.433018
-0.515997
-0.363648
-0.0410131
0.298552
0.492805
0.459912
0.229172
-0.0751366
-0.293698
-0.318223
-0.139892
0.153779
0.426562
0.576662
0.590148
0.525884
0.465997
0.465519
0.52067
0.573339
0.550722
0.420731
0.229174
0.080503
0.067268
0.203497
0.407208
0.543028
0.495842
0.232097
-0.16397
-0.515806
-0.659074
-0.529738
-0.186394
0.207668
0.467462
0.49231
0.301964
0.0156539
-0.204295
-0.238906
-0.0707347
0.215971
0.485653
0.569044
0.541574
0.330955
0.0550304
-0.140776
-0.157439
0.0106409
0.278131
0.516974
0.627804
0.577747
0.397128
0.169197
0.00222241
-0.0239032
0.101279
0.314606
0.51376
0.612585
0.573595
0.41083
0.189266
0.00811162
-0.0467309
0.0519391
0.257675
0.472057
0.596612
0.575843
0.410375
0.161886
-0.0599008
-0.149686
-0.0629452
0.161016
0.415191
0.580512
0.583364
0.417307
0.147562
-0.103641
-0.215432
-0.133184
0.104362
0.380748
0.561943
0.56309
0.376459
0.0770848
-0.196683
-0.31185
-0.211499
0.0587922
0.368384
0.567326
0.56039
0.338628
-0.0117533
-0.330962
-0.467009
-0.35607
-0.0509635
0.298188
0.523573
0.529706
0.323924
0.00940206
-0.253959
-0.333552
-0.191972
0.100533
0.404658
0.597704
0.642301
0.581874
0.495941
0.453093
0.471773
0.507673
0.482874
0.346247
0.125982
-0.0753743
-0.147185
-0.0419318
0.191254
0.423752
0.515419
0.38804
0.0672504
-0.313689
-0.579195
-0.611351
-0.39722
-0.0300363
0.326204
0.529708
0.538214
0.408554
0.252589
0.176568
0.223345
0.353763
0.478676
0.522887
0.478665
0.406318
0.383609
0.445774
0.55726
0.629979
0.570967
0.336296
-0.0211952
-0.354979
-0.509509
-0.412141
-0.110349
0.24071
0.456578
0.426164
0.160543
-0.209418
-0.493664
-0.550235
-0.350656
0.0141507
0.372778
0.493366
0.425602
0.13636
-0.225248
-0.475258
-0.493099
-0.270521
0.0889345
0.414424
0.560807
0.474145
0.198753
-0.137024
-0.37367
-0.402647
-0.212286
0.10932
0.410922
0.557305
0.488637
0.23174
-0.104234
-0.366866
-0.438178
-0.286751
0.0211013
0.342789
0.529756
0.499094
0.257862
-0.0946372
-0.398488
-0.515435
-0.393784
-0.0855954
0.266751
0.497069
0.501245
0.274192
-0.0866962
-0.41283
-0.551599
-0.440724
-0.12891
0.236979
0.480143
0.487249
0.251299
-0.124636
-0.462736
-0.604338
-0.486819
-0.162302
0.216134
0.464688
0.466428
0.216967
-0.171769
-0.511626
-0.63876
-0.493409
-0.140061
0.251577
0.491355
0.47062
0.200041
-0.193734
-0.517725
-0.617696
-0.44925
-0.0880633
0.299117
0.547343
0.588637
0.464186
0.283689
0.167388
0.180373
0.297276
0.424901
0.471569
0.415012
0.313813
0.258178
0.303845
0.431937
0.555361
0.565911
0.391935
0.0486144
-0.342188
-0.611301
-0.642951
-0.424285
-0.0513107
0.301649
0.476201
0.416211
0.182719
-0.0813609
-0.226774
-0.17811
0.0360967
0.306576
0.510734
0.589178
0.567262
0.517061
0.50322
0.54273
0.594659
0.584494
0.453608
0.213537
-0.0377995
-0.171002
-0.110401
0.11474
0.377292
0.519957
0.438868
0.134691
-0.27059
-0.585774
-0.662741
-0.46611
-0.0848977
0.295846
0.47374
0.365154
0.032263
-0.366232
-0.635073
-0.650322
-0.404795
-0.00867773
0.348679
0.500065
0.381561
0.048067
-0.343969
-0.609152
-0.63073
-0.400661
-0.0196968
0.33538
0.502877
0.412411
0.10138
-0.293167
-0.590758
-0.662441
-0.479121
-0.116766
0.26094
0.480265
0.445632
0.16975
-0.227454
-0.562583
-0.68613
-0.546722
-0.20175
0.192813
0.451174
0.456849
0.206856
-0.186599
-0.536644
-0.681289
-0.558156
-0.21938
0.179209
0.447266
0.463032
0.220802
-0.168466
-0.518339
-0.666289
-0.549767
-0.220925
0.166502
0.426358
0.441739
0.212477
-0.147444
-0.455571
-0.557697
-0.402225
-0.0578712
0.309896
0.522133
0.477854
0.188112
-0.221561
-0.557349
-0.663624
-0.494983
-0.128619
0.25935
0.486359
0.468181
0.247506
-0.0361012
-0.218057
-0.199438
0.00586038
0.286763
0.507123
0.595136
0.573095
0.517091
0.497669
0.536088
0.591827
0.585973
0.448643
0.174131
-0.148599
-0.376811
-0.402613
-0.211575
0.10458
0.382354
0.472915
0.319626
-0.0133698
-0.363598
-0.558744
-0.509581
-0.239293
0.1297
0.43597
0.576135
0.55053
0.436206
0.334741
0.316641
0.382812
0.469213
0.494561
0.423381
0.298472
0.211765
0.235639
0.368415
0.530061
0.607276
0.512506
0.232116
-0.142253
-0.444514
-0.532632
-0.365356
-0.0238056
0.315481
0.523551
0.396429
0.0739131
-0.303419
-0.555793
-0.566369
-0.329921
0.0449087
0.376229
0.505839
0.374158
0.0369194
-0.34993
-0.603764
-0.612613
-0.373753
0.00810862
0.356731
0.51549
0.419444
0.109071
-0.278378
-0.564965
-0.625794
-0.436387
-0.0761606
0.293046
0.505291
0.473052
0.211621
-0.164106
-0.47984
-0.592689
-0.454739
-0.124728
0.247057
0.488269
0.494377
0.26486
-0.0971264
-0.419787
-0.551662
-0.434227
-0.119252
0.247151
0.493991
0.515976
0.309826
-0.0287446
-0.338005
-0.472296
-0.373406
-0.0890023
0.245469
0.473371
0.5009
0.330956
0.05535
-0.181622
-0.255846
-0.126393
0.146958
0.431042
0.588429
0.540774
0.292767
-0.0587162
-0.352497
-0.449127
-0.304276
0.00927795
0.326266
0.474823
0.370722
0.0576802
-0.306918
-0.534808
-0.512795
-0.249045
0.134815
0.467306
0.634935
0.634107
0.538764
0.444592
0.417817
0.460056
0.510733
0.490256
0.361505
0.168572
0.0151831
-0.00495234
0.129647
0.348581
0.521477
0.52606
0.310007
-0.0696167
-0.453384
-0.66796
-0.62247
-0.338224
0.0571013
0.382568
0.509082
0.42159
0.207131
0.00542038
-0.0657597
0.0274541
0.226015
0.420541
0.524352
0.526954
0.484819
0.46796
0.5092
0.584726
0.629432
0.572915
0.383997
0.110418
-0.127951
-0.209973
-0.0902777
0.168656
0.42246
0.594367
0.486045
0.233033
-0.0645602
-0.265858
-0.271717
-0.0777224
0.221862
0.478841
0.570522
0.452154
0.168828
-0.152827
-0.360049
-0.356606
-0.144781
0.177872
0.462404
0.586421
0.503525
0.248492
-0.0685702
-0.301852
-0.345163
-0.180182
0.118789
0.41574
0.582711
0.557434
0.354363
0.0609991
-0.18738
-0.274139
-0.159694
0.102816
0.390325
0.573092
0.577583
0.405616
0.132446
-0.114007
-0.214828
-0.122548
0.118037
0.39165
0.574503
0.595987
0.456122
0.219907
-0.00139985
-0.101785
-0.0362602
0.159174
0.388018
0.547389
0.580361
0.490178
0.330719
0.186308
0.132683
0.197591
0.348273
0.510664
0.607221
0.586415
0.438328
0.211824
0.0103949
-0.0607375
0.0398923
0.258381
0.464885
0.520751
0.351325
-0.00643082
-0.400561
-0.644395
-0.624949
-0.348408
0.0609705
0.415421
0.577634
0.528473
0.348566
0.166472
0.0924742
0.160717
0.316701
0.457924
0.505979
0.458719
0.38194
0.355362
0.416278
0.533234
0.621693
0.588684
0.382743
0.0396389
-0.309498
-0.508822
-0.469986
-0.212326
0.139293
0.408027
0.462918
0.282607
-0.0381568
-0.331606
-0.449787
-0.339158
-0.0535168
0.275797
0.514418
0.603979
0.573823
0.498144
0.448385
0.457566
0.505248
0.533046
0.487114
0.365524
0.23166
0.172693
0.235283
0.389195
0.542481
0.602633
0.550922
0.414467
0.241722
0.118513
0.114022
0.234607
0.418534
0.572647
0.623189
0.543261
0.359441
0.150651
0.0177908
0.0273189
0.17398
0.385359
0.563508
0.636798
0.582271
0.422922
0.225157
0.0800554
0.0572692
0.166319
0.352721
0.52936
0.624455
0.608418
0.492257
0.324261
0.180996
0.13266
0.202796
0.354847
0.514166
0.611302
0.612077
0.520134
0.373934
0.240449
0.185971
0.237065
0.364665
0.503713
0.59393
0.607289
0.547229
0.441697
0.338586
0.286974
0.308707
0.386285
0.478265
0.548126
0.580043
0.573645
0.536817
0.485539
0.439657
0.414065
0.415813
0.445184
0.491557
0.527571
0.518938
0.455335
0.372434
0.332361
0.375543
0.484157
0.583257
0.577692
0.403357
0.0782839
-0.277316
-0.501011
-0.487115
-0.240307
0.119691
0.410996
0.49544
0.348816
0.0620507
-0.205475
-0.31203
-0.205555
0.0591955
0.353237
0.552859
0.61367
0.57493
0.513522
0.493712
0.531691
0.587401
0.588318
0.474848
0.250338
0.000676118
-0.150891
-0.122862
0.0736793
0.333084
0.505924
0.477241
0.222815
-0.166127
-0.514676
-0.665127
-0.555671
-0.233778
0.159933
0.459574
0.570804
0.503031
0.339142
0.190436
0.142741
0.213556
0.350164
0.469394
0.515918
0.496807
0.463948
0.466126
0.513735
0.576073
0.473092
0.505765
0.511193
0.481842
0.444159
0.432984
0.460616
0.510462
0.554287
0.570069
0.546894
0.48741
0.414795
0.367325
0.372778
0.426444
0.495957
0.547237
0.564539
0.548208
0.505259
0.451034
0.411224
0.407854
0.440492
0.485887
0.51852
0.529518
0.524088
0.507761
0.484274
0.463401
0.458725
0.473423
0.494485
0.506066
0.505532
0.501294
0.498475
0.494907
0.490302
0.489654
0.493521
0.492631
0.479884
0.464172
0.463804
0.48611
0.519161
0.543611
0.546496
0.522725
0.474858
0.420954
0.394537
0.422524
0.498596
0.580397
0.614736
0.568122
0.445794
0.298184
0.202377
0.214008
0.32529
0.468708
0.568032
0.593231
0.570335
0.548111
0.556507
0.582078
0.571698
0.466327
0.254039
0.00455083
-0.161734
-0.153231
0.0311331
0.290457
0.470457
0.449809
0.205373
-0.166193
-0.489629
-0.612429
-0.478955
-0.144934
0.242467
0.523254
0.619717
0.55622
0.420159
0.31289
0.299082
0.373969
0.471323
0.509733
0.451863
0.334707
0.243831
0.251751
0.366549
0.521394
0.608988
0.535977
0.272037
-0.112276
-0.460404
-0.620585
-0.526848
-0.220698
0.158735
0.438025
0.50661
0.360364
0.0902102
-0.158219
-0.258499
-0.166113
0.0702337
0.339497
0.533155
0.606123
0.581723
0.515388
0.460567
0.44759
0.186642
0.31591
0.468013
0.57707
0.613586
0.583176
0.508348
0.421007
0.358751
0.349811
0.395552
0.469104
0.534317
0.56701
0.558111
0.507004
0.425703
0.346271
0.309289
0.337246
0.417664
0.511276
0.577169
0.590048
0.540993
0.440177
0.325112
0.250845
0.257856
0.344778
0.468409
0.570752
0.609326
0.567743
0.456785
0.319216
0.219753
0.210412
0.297716
0.437851
0.562999
0.617796
0.57736
0.450964
0.287522
0.16476
0.14828
0.25015
0.419099
0.569386
0.62784
0.563467
0.397033
0.203102
0.0831765
0.106131
0.26093
0.45731
0.575943
0.534747
0.332439
0.0602138
-0.136922
-0.148125
0.0329488
0.306225
0.532672
0.625052
0.586878
0.48765
0.411404
0.403791
0.444405
0.46742
0.420835
0.317414
0.229423
0.23091
0.337005
0.483315
0.557784
0.462535
0.173734
-0.220888
-0.553148
-0.675727
-0.53556
-0.189744
0.207594
0.48104
0.535567
0.389231
0.1475
-0.0485923
-0.0943837
0.0280973
0.248814
0.454021
0.559282
0.557495
0.505499
0.474727
0.504008
0.575965
0.626215
0.577873
0.38794
0.0920886
-0.192797
-0.334844
-0.266001
-0.0181294
0.284785
0.486293
0.479095
0.250017
-0.109175
-0.433982
-0.576833
-0.479062
-0.183346
0.1834
0.47063
0.588998
0.539279
0.386728
0.227458
0.148375
-0.183621
0.0315471
0.312321
0.537822
0.627472
0.563939
0.383469
0.166082
0.0105892
-0.0119897
0.106775
0.309283
0.501666
0.60258
0.572747
0.418561
0.1951
-0.00337093
-0.0861569
-0.0133802
0.183625
0.414861
0.577553
0.604208
0.479749
0.245852
-0.00119173
-0.14904
-0.128402
0.0527248
0.310447
0.525286
0.60362
0.511836
0.28257
0.0126094
-0.172955
-0.186113
-0.0194366
0.249276
0.492721
0.600416
0.524214
0.289592
-0.00404913
-0.218362
-0.249383
-0.0808704
0.20627
0.469898
0.582085
0.487805
0.22346
-0.0870471
-0.285334
-0.269593
-0.0515178
0.245527
0.448714
0.43393
0.193581
-0.151373
-0.409938
-0.437319
-0.218902
0.124684
0.410356
0.509733
0.416113
0.227811
0.0822681
0.0735912
0.200076
0.376184
0.501889
0.536159
0.512599
0.496152
0.5263
0.584876
0.603729
0.504906
0.256539
-0.0808143
-0.368714
-0.475038
-0.348884
-0.0460375
0.286016
0.481127
0.444792
0.19398
-0.149447
-0.415507
-0.478561
-0.31144
0.0110794
0.345572
0.562328
0.617773
0.553732
0.454339
0.398899
0.420613
0.48967
0.533657
0.486855
0.342575
0.168937
0.067087
0.103591
0.266005
0.464122
0.576323
0.508979
0.239637
-0.153141
-0.508828
-0.67611
-0.58933
-0.284556
0.107544
0.41572
0.52315
0.4139
0.162419
-0.0976986
-0.234827
-0.496087
-0.228326
0.137132
0.439063
0.555325
0.450757
0.176595
-0.143783
-0.364344
-0.388494
-0.20686
0.100322
0.394043
0.546629
0.496187
0.257928
-0.0751343
-0.359237
-0.470891
-0.362466
-0.0774278
0.259441
0.497474
0.535487
0.3546
0.0233953
-0.31525
-0.510154
-0.477557
-0.2299
0.124778
0.423324
0.532212
0.404326
0.0902827
-0.270955
-0.51271
-0.527579
-0.308066
0.0500723
0.379972
0.529302
0.431388
0.124157
-0.255191
-0.527558
-0.568237
-0.358664
0.00678122
0.351257
0.506997
0.399939
0.0765854
-0.306225
-0.55506
-0.54958
-0.297594
0.0664186
0.34094
0.374354
0.150948
-0.200033
-0.47359
-0.513921
-0.302784
0.0334148
0.29632
0.342222
0.16649
-0.104579
-0.294962
-0.284517
-0.071297
0.235442
0.490013
0.607796
0.600584
0.540221
0.500777
0.511312
0.539178
0.514917
0.387908
0.17877
-0.0183432
-0.0956577
-0.00322085
0.215971
0.440667
0.533575
0.411102
0.0875951
-0.312239
-0.610559
-0.67892
-0.489901
-0.121127
0.266591
0.513735
0.552094
0.418456
0.219618
0.0793241
0.0749684
0.200269
0.375906
0.502245
0.525851
0.46944
0.405019
0.399537
0.470784
0.575406
0.631854
0.560267
0.32533
-0.0226818
-0.350464
-0.516603
-0.450249
-0.180133
0.169455
0.431553
0.484779
0.303597
-0.0339392
-0.370943
-0.551036
-0.62407
-0.344177
0.0472756
0.371867
0.486491
0.346484
0.0139257
-0.36041
-0.606722
-0.621747
-0.39974
-0.0324549
0.317422
0.497216
0.43437
0.151706
-0.234921
-0.556284
-0.67678
-0.548918
-0.221429
0.166386
0.441284
0.485948
0.280884
-0.0909048
-0.464718
-0.674747
-0.634626
-0.359156
0.0355966
0.369308
0.491614
0.349997
0.00344111
-0.391305
-0.652308
-0.667133
-0.428591
-0.0370375
0.327112
0.495403
0.393876
0.0650417
-0.340682
-0.631104
-0.675772
-0.45483
-0.0643688
0.309716
0.487169
0.387014
0.056086
-0.343346
-0.61014
-0.616882
-0.36442
0.0183453
0.329981
0.41529
0.252149
-0.0453794
-0.291655
-0.34107
-0.174815
0.0891845
0.266915
0.227252
-0.0231126
-0.342296
-0.542922
-0.505345
-0.236159
0.136573
0.437556
0.556691
0.499854
0.359236
0.250354
0.24514
0.333779
0.439849
0.480718
0.431398
0.340802
0.29046
0.333281
0.454616
0.576172
0.597051
0.444936
0.123446
-0.261418
-0.546896
-0.610719
-0.426742
-0.0742869
0.283299
0.481415
0.443463
0.206707
-0.0987089
-0.312773
-0.330287
-0.14511
0.154572
0.433172
0.589891
0.610178
0.548785
0.483045
0.469421
0.514057
0.569887
0.563151
0.439601
0.212066
-0.0285703
-0.164267
-0.12295
0.0792964
0.339899
0.519094
0.509344
0.279808
-0.0995333
-0.470878
-0.672913
-0.516154
-0.260024
0.0997483
0.393067
0.483645
0.328352
-0.0105762
-0.381622