# vtk DataFile Version 3.0
PFC simulation results
ASCII
DATASET STRUCTURED_POINTS
DIMENSIONS 128 128 1
ORIGIN 0 0 0
SPACING 1 1 1
POINT_DATA 16384
SCALARS psi double
LOOKUP_TABLE default
0.322033
0.451298
0.416797
0.2326
-0.0202137
-0.220032
-0.265992
-0.135182
0.103989
0.330262
0.437453
0.38277
0.195809
-0.0368125
-0.210073
-0.253162
-0.162939
-0.00124644
0.139585
0.186325
0.120192
-0.0197042
-0.161826
-0.243113
-0.242067
-0.184948
-0.125177
-0.109926
-0.152905
-0.228261
-0.287611
-0.28888
-0.220253
-0.107523
-0.00155846
0.0477995
0.0159134
-0.087293
-0.22367
-0.34284
-0.400054
-0.368683
-0.246037
-0.0553356
0.158163
0.34096
0.448606
0.455449
0.35959
0.191814
0.0181618
-0.0844188
-0.0723739
0.0341412
0.158795
0.211831
0.143742
-0.0201212
-0.187209
-0.251835
-0.159959
0.0605603
0.319118
0.520003
0.613294
0.595614
0.48344
0.305073
0.107483
-0.0544208
-0.145854
-0.167768
-0.145478
-0.10177
-0.0377387
0.0612494
0.200583
0.358016
0.490989
0.562756
0.563083
0.508907
0.430195
0.353345
0.29092
0.24146
0.197569
0.155666
0.120758
0.103954
0.115166
0.15527
0.21105
0.255504
0.256235
0.191528
0.0664611
-0.0835436
-0.20911
-0.274341
-0.274982
-0.235349
-0.188622
-0.154418
-0.128034
-0.0878384
-0.0142936
0.0938125
0.217402
0.329792
0.412679
0.461963
0.481022
0.471848
0.435634
0.382408
0.336181
0.323695
0.351889
0.393187
0.394021
0.305552
0.120943
-0.104424
-0.272868
-0.299169
-0.161363
0.0826254
0.370069
0.450633
0.398237
0.229023
0.0134565
-0.146632
-0.170144
-0.045292
0.16024
0.335465
0.386368
0.279437
0.0537738
-0.19359
-0.353397
-0.361143
-0.22689
-0.0267284
0.137311
0.190962
0.122388
-0.018831
-0.152344
-0.211989
-0.180116
-0.0916367
-0.00901326
0.015229
-0.0327673
-0.122573
-0.197807
-0.207506
-0.133524
-0.000298941
0.137551
0.222728
0.22045
0.128709
-0.0245037
-0.191278
-0.318776
-0.365139
-0.311489
-0.168741
0.0231574
0.208404
0.336499
0.377934
0.330722
0.224433
0.117364
0.07328
0.123215
0.240085
0.347464
0.358802
0.226068
-0.022438
-0.280114
-0.416311
-0.353082
-0.108154
0.213998
0.482254
0.610052
0.574315
0.395031
0.128442
-0.135176
-0.305159
-0.336482
-0.245461
-0.0889896
0.0742619
0.214465
0.33032
0.424491
0.485132
0.492181
0.438387
0.342018
0.240185
0.17003
0.151201
0.179067
0.231776
0.28578
0.328339
0.35985
0.387979
0.419371
0.453289
0.479296
0.479563
0.435823
0.339925
0.20373
0.0597678
-0.0534352
-0.113915
-0.129117
-0.128954
-0.144305
-0.1852
-0.233088
-0.253224
-0.219085
-0.131623
-0.0196038
0.0798452
0.14625
0.186582
0.224185
0.277073
0.344355
0.410823
0.462889
0.49832
0.51976
0.520908
0.4818
0.380925
0.219141
0.037842
-0.0912148
-0.105679
0.00667918
0.195025
0.41035
0.422631
0.364035
0.248733
0.119192
0.0351894
0.042965
0.142729
0.28148
0.37955
0.372874
0.244318
0.0350833
-0.16772
-0.272964
-0.234989
-0.0766124
0.124029
0.275008
0.318271
0.254213
0.134874
0.0343427
0.00897012
0.0682571
0.17397
0.265906
0.296579
0.254812
0.168853
0.0906207
0.0686852
0.123153
0.236008
0.362043
0.4524
0.474242
0.417578
0.294351
0.135741
-0.0145433
-0.113367
-0.133267
-0.0727359
0.0429747
0.172299
0.274386
0.323019
0.313634
0.266563
0.223665
0.230198
0.305904
0.425187
0.523113
0.524552
0.382471
0.115336
-0.178951
-0.365745
-0.35259
-0.142526
0.166003
0.434724
0.561507
0.511278
0.305372
0.0165258
-0.24278
-0.369043
-0.321169
-0.133926
0.109621
0.32712
0.474975
0.547575
0.550483
0.483614
0.35001
0.174144
0.00460213
-0.10473
-0.119324
-0.0391751
0.101713
0.253092
0.37422
0.449624
0.487435
0.507238
0.526394
0.550659
0.572291
0.575438
0.545579
0.478929
0.387824
0.29773
0.233864
0.204339
0.193029
0.169035
0.107173
0.0067888
-0.103673
-0.182014
-0.199488
-0.161038
-0.103094
-0.0681797
-0.0728697
-0.0936337
-0.0830411
-0.00456809
0.139697
0.308351
0.448076
0.526403
0.5427
0.515423
0.463174
0.394748
0.314251
0.234976
0.184357
0.188971
0.251193
0.340654
0.377497
0.322083
0.278022
0.251377
0.241771
0.252891
0.290603
0.349035
0.403484
0.420628
0.376698
0.271563
0.135822
0.0249929
-0.00633903
0.0626015
0.203887
0.355227
0.454611
0.47195
0.419086
0.339265
0.284703
0.290057
0.354721
0.445773
0.519241
0.544269
0.516116
0.455252
0.396363
0.371536
0.394583
0.455558
0.529017
0.58871
0.616691
0.603463
0.546622
0.453561
0.344004
0.245268
0.180855
0.160688
0.179604
0.222719
0.271744
0.309357
0.324196
0.318193
0.310375
0.32878
0.391423
0.488489
0.578799
0.604016
0.516251
0.313262
0.0616283
-0.126497
-0.160164
-0.0268657
0.199803
0.405565
0.499878
0.447584
0.267545
0.0294234
-0.162601
-0.218465
-0.111739
0.109474
0.354417
0.542409
0.636581
0.635792
0.547604
0.378359
0.148084
-0.0939533
-0.279038
-0.34944
-0.284401
-0.109691
0.110861
0.303593
0.419109
0.449167
0.421331
0.38031
0.364787
0.390022
0.444499
0.500547
0.532119
0.529519
0.503285
0.476217
0.467795
0.479703
0.492573
0.477179
0.413137
0.304108
0.1801
0.082151
0.0357629
0.0311865
0.0272498
-0.0199086
-0.120351
-0.233499
-0.28854
-0.23049
-0.0597956
0.161505
0.345533
0.432425
0.419852
0.353501
0.293811
0.280408
0.315011
0.371808
0.422629
0.45219
0.454474
0.427377
0.233196
0.126894
0.120992
0.205122
0.326262
0.42831
0.481475
0.482944
0.445657
0.390143
0.336139
0.295136
0.272288
0.274414
0.309683
0.37589
0.452863
0.511802
0.533995
0.521157
0.490989
0.4659
0.462973
0.486877
0.527611
0.566613
0.588693
0.590145
0.577565
0.561237
0.54917
0.544007
0.542713
0.539722
0.533449
0.530371
0.539835
0.563178
0.5887
0.598082
0.57848
0.529284
0.459245
0.381374
0.312482
0.271726
0.270856
0.302892
0.343225
0.365881
0.361995
0.345972
0.345855
0.38324
0.453484
0.520191
0.532344
0.4592
0.321298
0.186625
0.125705
0.162488
0.261927
0.359244
0.40084
0.364553
0.261285
0.134831
0.0513519
0.0658265
0.18555
0.362954
0.525912
0.621101
0.633026
0.568782
0.435385
0.238436
0.00180907
-0.219649
-0.357041
-0.361749
-0.230069
-0.00862039
0.221035
0.377302
0.413788
0.335425
0.194183
0.0653901
0.0111678
0.0529682
0.167456
0.303183
0.409848
0.464296
0.47713
0.479199
0.498829
0.543104
0.594121
0.621786
0.603791
0.540409
0.456011
0.384876
0.347163
0.330648
0.294012
0.19441
0.0249095
-0.165083
-0.28977
-0.280048
-0.132393
0.080291
0.24853
0.294001
0.21552
0.085972
0.00615923
0.0433867
0.193312
0.387382
0.539439
0.592953
0.535378
0.394432
0.00182437
-0.128288
-0.0782006
0.118234
0.35476
0.521844
0.564389
0.490894
0.356642
0.238234
0.19629
0.244287
0.348486
0.457582
0.533529
0.559616
0.535431
0.476775
0.414723
0.382354
0.395734
0.444677
0.500389
0.532596
0.523826
0.477176
0.416641
0.375717
0.378253
0.424135
0.488146
0.532675
0.527001
0.462997
0.362503
0.271376
0.23676
0.280554
0.387671
0.513953
0.608155
0.634552
0.58243
0.466514
0.327574
0.222882
0.196635
0.249541
0.335998
0.39342
0.380662
0.30031
0.19771
0.136875
0.160868
0.262675
0.389013
0.475232
0.488022
0.441704
0.374968
0.316131
0.272006
0.240654
0.222758
0.219254
0.227197
0.245646
0.282855
0.348212
0.433208
0.50651
0.534844
0.508532
0.443226
0.35803
0.256287
0.13072
-0.0120449
-0.135727
-0.188386
-0.134823
0.0185932
0.219971
0.390637
0.458004
0.3849
0.187642
-0.0614143
-0.262331
-0.338377
-0.269905
-0.0963392
0.104727
0.256451
0.321696
0.315698
0.288327
0.290728
0.345987
0.43996
0.534916
0.59505
0.607632
0.587701
0.564549
0.558151
0.560354
0.535115
0.441543
0.269055
0.061478
-0.0961978
-0.129827
-0.0306128
0.129259
0.235744
0.204694
0.0385426
-0.16836
-0.284553
-0.222426
0.00909049
0.307105
0.535651
0.601764
0.487461
0.248796
-0.231691
-0.355742
-0.245753
0.0395852
0.351524
0.54234
0.543258
0.37894
0.147704
-0.0217487
-0.0378043
0.104522
0.326672
0.519626
0.605906
0.563185
0.418295
0.23742
0.102893
0.074034
0.156686
0.299794
0.422925
0.459397
0.386663
0.234661
0.073595
-0.0203163
-0.00350658
0.114751
0.275125
0.394557
0.407267
0.296497
0.104707
-0.0822201
-0.177265
-0.134403
0.034832
0.266825
0.471574
0.573606
0.540714
0.391538
0.194567
0.0468415
0.0226935
0.12603
0.285406
0.397492
0.387052
0.244323
0.0311389
-0.146027
-0.194288
-0.0857217
0.132011
0.364547
0.524285
0.571659
0.512203
0.372935
0.196316
0.0424639
-0.0293105
0.00809261
0.134531
0.296418
0.438995
0.528215
0.546778
0.487449
0.363854
0.218882
0.106271
0.0576276
0.0644802
0.090195
0.104133
0.108667
0.133504
0.205888
0.32455
0.453712
0.536599
0.518108
0.368241
0.106102
-0.189531
-0.411084
-0.48073
-0.386399
-0.181984
0.0362005
0.174548
0.189337
0.105028
-0.00462525
-0.0602968
-0.0192711
0.10842
0.272669
0.414432
0.498827
0.529738
0.538222
0.555186
0.586378
0.605865
0.573722
0.468868
0.31617
0.182818
0.136155
0.190741
0.287442
0.3245
0.222848
-0.0135521
-0.282676
-0.439157
-0.38436
-0.126956
0.213737
0.472193
0.530474
0.366838
0.0607949
-0.365424
-0.459972
-0.302902
0.0270945
0.358232
0.527044
0.463249
0.20882
-0.101129
-0.300615
-0.284352
-0.0626755
0.247197
0.490504
0.561282
0.43818
0.178707
-0.100853
-0.275767
-0.274086
-0.107385
0.134002
0.323481
0.363945
0.231593
-0.016389
-0.266543
-0.406223
-0.377141
-0.194921
0.0556261
0.253075
0.299062
0.166051
-0.0898585
-0.352905
-0.505954
-0.483533
-0.288805
0.0075732
0.287867
0.441124
0.41438
0.230986
-0.0135349
-0.187685
-0.194558
-0.0298937
0.212498
0.39423
0.410586
0.238933
-0.0516333
-0.326469
-0.454229
-0.374171
-0.118083
0.207088
0.473137
0.594584
0.547436
0.353758
0.080296
-0.164634
-0.274391
-0.201007
0.0203822
0.291146
0.504045
0.591896
0.533482
0.3451
0.0871081
-0.144439
-0.261767
-0.229141
-0.0763683
0.120111
0.284619
0.385866
0.438876
0.475354
0.515864
0.557232
0.572817
0.523059
0.377246
0.144127
-0.111159
-0.293521
-0.333858
-0.226655
-0.0320956
0.149633
0.224966
0.153237
-0.0320418
-0.238595
-0.365421
-0.355499
-0.21665
-0.0107035
0.179524
0.294922
0.32904
0.321822
0.326469
0.372555
0.448121
0.51092
0.521252
0.474989
0.411081
0.382799
0.411982
0.463099
0.459464
0.333555
0.0840038
-0.199482
-0.378547
-0.353029
-0.126177
0.186951
0.419993
0.449894
0.254669
-0.0742807
-0.334893
-0.388492
-0.211072
0.108904
0.401593
0.513573
0.384488
0.0695634
-0.276578
-0.475679
-0.42706
-0.157484
0.192662
0.445794
0.484591
0.294381
-0.0403745
-0.367012
-0.53956
-0.489656
-0.248172
0.0667345
0.301177
0.34457
0.177272
-0.125278
-0.424263
-0.587341
-0.549423
-0.329635
-0.0253311
0.222887
0.300458
0.172992
-0.101886
-0.399833
-0.590872
-0.597443
-0.414007
-0.10928
0.189343
0.35357
0.318188
0.108509
-0.164682
-0.351507
-0.344039
-0.137254
0.165129
0.407193
0.468343
0.315362
0.0103543
-0.310013
-0.498434
-0.470581
-0.237114
0.102955
0.408467
0.568164
0.53619
0.32613
0.0131313
-0.271601
-0.39724
-0.30464
-0.036602
0.283798
0.520569
0.588503
0.464868
0.183827
-0.157153
-0.42334
-0.509596
-0.387088
-0.110239
0.207103
0.453007
0.575875
0.588702
0.53887
0.479948
0.448698
0.447318
0.442699
0.390465
0.274045
0.128723
0.0241102
0.0168677
0.11285
0.260829
0.375904
0.379672
0.238478
-0.0133852
-0.280595
-0.455073
-0.474217
-0.346208
-0.14135
0.041425
0.12651
0.102371
0.02255
-0.0318334
-0.00226186
0.11625
0.277674
0.416507
0.491063
0.507651
0.506168
0.520946
0.548306
0.544141
0.454932
0.266386
0.0361278
-0.127338
-0.134341
0.021717
0.250678
0.414843
0.408226
0.211952
-0.0882249
-0.145479
-0.158607
0.00428964
0.261524
0.472404
0.51601
0.349207
0.0300663
-0.293843
-0.459828
-0.384774
-0.108032
0.226886
0.449394
0.452774
0.232789
-0.114057
-0.426515
-0.561831
-0.465023
-0.183354
0.15336
0.392078
0.433238
0.266607
-0.0310142
-0.323899
-0.481631
-0.439808
-0.219277
0.0825731
0.331319
0.421631
0.321416
0.077631
-0.202294
-0.397466
-0.42783
-0.281344
-0.0194356
0.240103
0.377288
0.328969
0.117011
-0.153686
-0.338826
-0.332752
-0.127594
0.180185
0.443076
0.545343
0.449228
0.197751
-0.0988695
-0.307247
-0.335781
-0.174639
0.102168
0.372877
0.529956
0.518357
0.33931
0.0565324
-0.20772
-0.326065
-0.237955
0.0164347
0.316876
0.52981
0.570157
0.415311
0.106242
-0.245391
-0.493608
-0.533931
-0.349599
-0.015708
0.331134
0.564624
0.62926
0.543112
0.374382
0.214782
0.14038
0.174154
0.276852
0.375507
0.415668
0.397373
0.365465
0.369352
0.426838
0.51209
0.568924
0.538839
0.391432
0.149582
-0.107392
-0.281316
-0.311437
-0.205847
-0.0369967
0.0923049
0.102453
-0.0175732
-0.201737
-0.344623
-0.36206
-0.232246
-0.00197754
0.238369
0.406874
0.476244
0.476893
0.462806
0.469637
0.490452
0.485032
0.418946
0.303569
0.199239
0.172242
0.2413
0.3582
0.436468
0.403839
0.245465
0.023435
0.127625
0.145041
0.259699
0.416238
0.525535
0.513192
0.355426
0.0993858
-0.142284
-0.247411
-0.158813
0.0802812
0.347111
0.507543
0.484269
0.282934
-0.00910874
-0.253826
-0.33382
-0.212696
0.0534952
0.345009
0.539575
0.569468
0.436127
0.201798
-0.0283991
-0.150503
-0.112008
0.0668001
0.304357
0.498166
0.574463
0.512113
0.3411
0.13307
-0.0234417
-0.0620342
0.0318843
0.212761
0.392317
0.48143
0.431077
0.25385
0.0270251
-0.136306
-0.14795
0.00411078
0.248693
0.474331
0.591989
0.566976
0.417733
0.208907
0.0312365
-0.0398995
0.0193217
0.172947
0.347032
0.467146
0.483917
0.382629
0.196042
0.00793186
-0.0836161
-0.02562
0.156382
0.373573
0.525313
0.54387
0.407311
0.147617
-0.139853
-0.328146
-0.327211
-0.13096
0.177664
0.463877
0.610751
0.568013
0.358919
0.0731114
-0.162874
-0.246115
-0.146705
0.0812202
0.329425
0.501886
0.568109
0.559711
0.532336
0.529315
0.560128
0.597996
0.596532
0.518483
0.365111
0.187171
0.0604771
0.0385474
0.117748
0.235394
0.299646
0.237193
0.0369379
-0.232917
-0.455179
-0.528721
-0.418223
-0.168176
0.114536
0.316305
0.381482
0.334504
0.253675
0.219418
0.265115
0.362164
0.449104
0.481995
0.464445
0.432918
0.418498
0.423198
0.423384
0.388846
0.30641
0.199943
0.379727
0.412128
0.454623
0.492512
0.500451
0.457115
0.356583
0.221358
0.107166
0.0776033
0.159841
0.31988
0.479171
0.560441
0.525218
0.38505
0.199873
0.0590355
0.0355641
0.143696
0.332548
0.517514
0.628423
0.638081
0.558043
0.426708
0.301291
0.238465
0.265775
0.366794
0.492397
0.59044
0.630511
0.606992
0.531897
0.433165
0.350994
0.321606
0.357075
0.437
0.518525
0.557227
0.524838
0.420896
0.280507
0.165356
0.130541
0.190575
0.313394
0.445425
0.542601
0.581017
0.55346
0.471381
0.366459
0.27723
0.22989
0.231048
0.272263
0.334265
0.38706
0.397377
0.351669
0.275585
0.220906
0.226673
0.292218
0.382653
0.453153
0.466466
0.399718
0.258776
0.0956029
-0.00605154
0.0194856
0.175099
0.392529
0.565214
0.600154
0.453508
0.150732
-0.204243
-0.467106
-0.529218
-0.36625
-0.0475213
0.290601
0.520585
0.592605
0.537496
0.430746
0.35211
0.348585
0.414604
0.500778
0.547579
0.525723
0.455424
0.390265
0.378665
0.429598
0.502886
0.528269
0.442215
0.227349
-0.0621463
-0.315968
-0.427156
-0.350177
-0.125042
0.135805
0.303927
0.306814
0.165209
-0.0195548
-0.123796
-0.0750064
0.110488
0.343989
0.523154
0.593118
0.560861
0.469932
0.373668
0.31413
0.304029
0.325728
0.353757
0.538335
0.568436
0.524441
0.438315
0.353016
0.302474
0.293748
0.311788
0.342145
0.383575
0.436666
0.488994
0.520008
0.517634
0.484359
0.432227
0.380987
0.35662
0.377695
0.437542
0.504523
0.545655
0.551348
0.536069
0.5188
0.508666
0.507051
0.513717
0.52482
0.529993
0.520694
0.502757
0.494305
0.507986
0.537702
0.564532
0.573832
0.563925
0.541284
0.514791
0.494718
0.488515
0.492424
0.490933
0.469777
0.42907
0.380679
0.336583
0.307056
0.306833
0.350259
0.433668
0.526164
0.583816
0.575011
0.493288
0.356962
0.209341
0.110594
0.107037
0.197792
0.331429
0.439969
0.483182
0.462593
0.402053
0.329683
0.274674
0.260416
0.28798
0.329704
0.349842
0.339436
0.327864
0.355194
0.433609
0.531777
0.588609
0.540087
0.34721
0.0298084
-0.313976
-0.547615
-0.572574
-0.37404
-0.0314677
0.307126
0.503938
0.503547
0.343544
0.126572
-0.0289257
-0.045844
0.0799297
0.284073
0.471856
0.575703
0.589238
0.555541
0.530861
0.548547
0.598475
0.632057
0.590332
0.442161
0.215324
-0.00433496
-0.117893
-0.0733826
0.0991841
0.296187
0.392795
0.31056
0.0647033
-0.229889
-0.41736
-0.393717
-0.160704
0.176342
0.465339
0.596899
0.550422
0.381765
0.193984
0.091705
0.12476
0.263319
0.426118
0.59319
0.603898
0.464899
0.256055
0.0883784
0.0469618
0.143657
0.31742
0.480556
0.572114
0.574776
0.503925
0.399794
0.316563
0.296248
0.34514
0.434172
0.521047
0.571208
0.562796
0.48999
0.375541
0.271684
0.233657
0.285113
0.402409
0.528458
0.605391
0.598728
0.504874
0.356383
0.218338
0.158767
0.209388
0.346332
0.502709
0.606806
0.617571
0.535437
0.399366
0.275488
0.226493
0.275184
0.390757
0.507468
0.561876
0.520376
0.387086
0.207802
0.0633315
0.0312195
0.136908
0.334084
0.527517
0.623775
0.57199
0.378357
0.112792
-0.105914
-0.17057
-0.0506493
0.190498
0.434778
0.579617
0.581409
0.450936
0.242934
0.0487728
-0.0402079
0.0148291
0.177726
0.362945
0.494616
0.550227
0.552921
0.536605
0.519839
0.494403
0.426291
0.276802
0.0446182
-0.204619
-0.364566
-0.353049
-0.160684
0.134276
0.394065
0.493006
0.380391
0.102209
-0.214442
-0.423999
-0.436629
-0.24931
0.0572094
0.353058
0.532494
0.568367
0.506409
0.426795
0.399293
0.446293
0.53334
0.593503
0.571829
0.46421
0.325378
0.237293
0.255669
0.369028
0.497443
0.532651
0.395169
0.0877515
-0.278551
-0.533685
-0.551905
-0.319149
0.0562766
0.392771
0.540921
0.456934
0.207244
-0.0611762
-0.192495
-0.111434
0.13613
0.415971
0.579503
0.556265
0.323855
0.00736707
-0.223196
-0.246144
-0.053427
0.250467
0.513586
0.626521
0.561705
0.363387
0.130389
-0.0218561
-0.0198142
0.131182
0.352484
0.537429
0.605717
0.526278
0.320294
0.0644677
-0.132233
-0.182458
-0.0627697
0.173695
0.41759
0.558564
0.535115
0.351134
0.0784625
-0.163276
-0.264716
-0.18051
0.0520202
0.325784
0.515587
0.541792
0.398905
0.155395
-0.0689372
-0.161113
-0.0744377
0.149999
0.402612
0.561354
0.549772
0.361177
0.0659119
-0.202748
-0.313489
-0.210662
0.0581602
0.363601
0.560124
0.5566
0.346275
0.0142659
-0.282476
-0.394482
-0.265183
0.0412508
0.375341
0.587896
0.599694
0.410379
0.0948717
-0.20584
-0.347591
-0.264206
-0.000554456
0.313599
0.542912
0.623127
0.570661
0.449285
0.333488
0.270103
0.25194
0.229935
0.162914
0.0641526
-0.00202926
0.0295376
0.172813
0.37011
0.515392
0.508151
0.304674
-0.047063
-0.411171
-0.635416
-0.632588
-0.406645
-0.0510148
0.281314
0.459778
0.445469
0.294851
0.121382
0.0357446
0.0894734
0.254612
0.445209
0.570722
0.591064
0.533804
0.468531
0.459848
0.523514
0.611046
0.633239
0.508411
0.219182
-0.146813
-0.427108
-0.484206
-0.28781
0.0618462
0.378424
0.496937
0.359592
0.0386202
-0.289548
-0.437955
-0.319505
0.00652612
0.366661
0.54599
0.482268
0.176877
-0.210936
-0.473521
-0.473868
-0.213098
0.173604
0.490368
0.595457
0.457107
0.146816
-0.185703
-0.380213
-0.348634
-0.110728
0.216479
0.476774
0.55603
0.419593
0.114061
-0.238525
-0.489069
-0.536046
-0.361831
-0.0383939
0.290422
0.476795
0.440297
0.19246
-0.163608
-0.469735
-0.593747
-0.485853
-0.189894
0.163775
0.412004
0.444852
0.251553
-0.0764268
-0.379113
-0.509859
-0.406132
-0.109826
0.245432
0.495252
0.528788
0.328078
-0.0256623
-0.370708
-0.54364
-0.465914
-0.173977
0.194658
0.465629
0.51901
0.33515
-0.000637701
-0.322015
-0.463212
-0.350368
-0.0368882
0.323445
0.561966
0.577969
0.360436
-0.00793525
-0.360664
-0.526335
-0.425287
-0.107953
0.268392
0.529432
0.583447
0.446488
0.21534
0.020438
-0.0426495
0.0353505
0.182667
0.305919
0.360702
0.371994
0.394768
0.460707
0.55014
0.599566
0.534574
0.313737
-0.0269128
-0.366911
-0.566378
-0.545542
-0.314954
0.0244812
0.31497
0.423335
0.309942
0.0435069
-0.232208
-0.375294
-0.316757
-0.0819683
0.22469
0.473696
0.586302
0.568818
0.490567
0.437443
0.46084
0.544461
0.612226
0.573897
0.386395
0.101044
-0.147807
-0.225081
-0.0850653
0.1923
0.4408
0.504871
0.322242
-0.0385825
-0.39449
-0.549771
-0.415174
-0.0570012
0.33202
0.529634
0.432356
0.0943656
-0.312809
-0.572388
-0.55008
-0.257553
0.154603
0.47398
0.549169
0.351147
-0.0282573
-0.407828
-0.60847
-0.544892
-0.25064
0.135992
0.434339
0.516712
0.351918
0.00397594
-0.381304
-0.63989
-0.671328
-0.466198
-0.105976
0.253307
0.453104
0.409934
0.140652
-0.239996
-0.561996
-0.688326
-0.569945
-0.253213
0.124697
0.389032
0.419889
0.203585
-0.161864
-0.502769
-0.660114
-0.563379
-0.248669
0.147922
0.447528
0.524107
0.351548
0.00562851
-0.354765
-0.561138
-0.522207
-0.257645
0.109409
0.407587
0.509947
0.386591
0.106249
-0.186926
-0.339285
-0.269713
-0.0103096
0.30959
0.534284
0.558987
0.360857
0.0116041
-0.329081
-0.49011
-0.388634
-0.075252
0.286445
0.511606
0.498452
0.266012
-0.0597375
-0.304642
-0.343331
-0.163825
0.134999
0.409245
0.565958
0.604789
0.583175
0.561512
0.565425
0.572495
0.526845
0.379852
0.140294
-0.107958
-0.251859
-0.220175
-0.0235001
0.243711
0.441342
0.453111
0.244203
-0.112109
-0.45802
-0.6391
-0.581941
-0.311358
0.0578379
0.367581
0.507179
0.467054
0.324951
0.198124
0.178589
0.280391
0.434451
0.533722
0.503259
0.353815
0.181212
0.104302
0.181731
0.367049
0.534184
0.553101
0.361665
0.0121703
-0.330937
-0.482869
-0.356655
-0.0173088
0.345729
0.539726
0.429941
0.11164
-0.258579
-0.482992
-0.442119
-0.156387
0.224296
0.500978
0.53785
0.31468
-0.0712949
-0.437305
-0.611189
-0.520055
-0.209222
0.177632
0.465655
0.540219
0.381207
0.0557634
-0.296827
-0.523973
-0.535128
-0.328793
0.0106091
0.337441
0.513673
0.471354
0.228357
-0.11398
-0.403932
-0.515187
-0.401796
-0.110123
0.231224
0.46608
0.489798
0.288918
-0.053044
-0.380898
-0.544836
-0.472649
-0.192764
0.172655
0.462052
0.561036
0.442554
0.163227
-0.15085
-0.355216
-0.359556
-0.165881
0.133828
0.402019
0.530034
0.48282
0.299385
0.0762271
-0.0718975
-0.0689697
0.0835908
0.307681
0.490067
0.537347
0.411472
0.153204
-0.115197
-0.247894
-0.16603
0.0894418
0.373212
0.518243
0.428164
0.124142
-0.253272
-0.511249
-0.517859
-0.268186
0.116926
0.459056
0.636064
0.637502
0.533551
0.420284
0.369214
0.391205
0.436126
0.434239
0.354995
0.236625
0.158862
0.184229
0.314068
0.481684
0.58315
0.526915
0.279962
-0.0957368
-0.452876
-0.641745
-0.589723
-0.322115
0.0423268
0.335772
0.433892
0.318407
0.0767046
-0.143547
-0.215203
-0.099063
0.143466
0.388095
0.522955
0.516813
0.427963
0.355686
0.371251
0.470104
0.575322
0.586493
0.4406
0.162959
-0.12162
-0.256888
-0.161327
0.112966
0.404434
0.553209
0.460738
0.214248
-0.0679717
-0.231309
-0.181622
0.0572753
0.35673
0.559019
0.563098
0.359565
0.033124
-0.262764
-0.385617
-0.281141
-0.00170368
0.322075
0.550456
0.604106
0.478532
0.230749
-0.0327746
-0.195691
-0.188771
-0.017643
0.24264
0.480599
0.602595
0.567788
0.391215
0.142552
-0.0701236
-0.150184
-0.0607035
0.159002
0.40901
0.577546
0.592993
0.444517
0.186537
-0.0710878
-0.211926
-0.173244
0.0258078
0.293221
0.512585
0.60428
0.547802
0.373952
0.15718
-0.00801957
-0.0516233
0.0393483
0.218319
0.405969
0.531841
0.559767
0.490802
0.360095
0.226301
0.148464
0.160718
0.255364
0.382548
0.470376
0.459682
0.343794
0.187875
0.0958155
0.138467
0.298747
0.474106
0.535407
0.399577
0.0826914
-0.28413
-0.518093
-0.497131
-0.226279
0.162049
0.479011
0.595908
0.502672
0.287549
0.0847362
0.00521954
0.0807349
0.254564
0.423641
0.510762
0.511203
0.477816
0.471594
0.519255
0.596876
0.641796
0.583333
0.382934
0.0757508
-0.224476
-0.387651
-0.343353
-0.114164
0.187507
0.406242
0.424672
0.221316
-0.114208
-0.417869
-0.543081
-0.43431
-0.140594
0.207493
0.466086
0.563509
0.52552
0.437113
0.385927
0.412358
0.488092
0.537746
0.491047
0.338078
0.151955
0.0472303
0.0965284
0.273828
0.467879
0.52445
0.479244
0.344113
0.184358
0.0955404
0.138465
0.294622
0.477897
0.590547
0.574999
0.431166
0.217371
0.0348225
-0.0237572
0.0704536
0.268163
0.474069
0.60427
0.624816
0.547027
0.409967
0.272287
0.195397
0.213702
0.316137
0.453435
0.566719
0.617321
0.594584
0.508357
0.388603
0.285138
0.24774
0.296681
0.409152
0.532389
0.613614
0.62152
0.54953
0.418247
0.278333
0.192051
0.197508
0.286053
0.41056
0.517944
0.576999
0.578836
0.526517
0.43611
0.33831
0.266327
0.241635
0.270552
0.346645
0.450268
0.546764
0.59376
0.560435
0.445731
0.28629
0.15053
0.10746
0.179843
0.322089
0.447714
0.490819
0.452824
0.393908
0.380553
0.43295
0.506888
0.518955
0.398664
0.145117
-0.144825
-0.322357
-0.284456
-0.0422648
0.276487
0.497745
0.504189
0.291879
-0.0320585
-0.302638
-0.387536
-0.249663
0.0434544
0.355313
0.563484
0.628701
0.59021
0.520428
0.482459
0.499451
0.543918
0.554613
0.477009
0.309719
0.120782
0.00894836
0.0391654
0.200791
0.406668
0.533956
0.484365
0.23226
-0.145959
-0.492715
-0.65843
-0.577494
-0.284797
0.0946435
0.401503
0.534659
0.49296
0.351779
0.218635
0.178657
0.247992
0.369828
0.457791
0.458636
0.389894
0.321282
0.316224
0.383917
0.476486
0.407902
0.43313
0.429944
0.403028
0.384697
0.402596
0.452038
0.501827
0.521649
0.49943
0.44105
0.368884
0.319324
0.324076
0.383976
0.463867
0.518878
0.529085
0.508234
0.482397
0.467974
0.469038
0.484204
0.507189
0.52392
0.519759
0.495061
0.468747
0.461169
0.475327
0.49774
0.514978
0.523612
0.524258
0.515094
0.497583
0.482725
0.482738
0.496745
0.51054
0.511756
0.500108
0.480198
0.452068
0.418
0.394923
0.407412
0.46249
0.534732
0.580024
0.563488
0.476486
0.342513
0.218366
0.173751
0.246154
0.406387
0.567205
0.631065
0.541399
0.314535
0.0490376
-0.115928
-0.0897374
0.107898
0.362336
0.545021
0.596383
0.542856
0.457333
0.406639
0.409375
0.424945
0.386825
0.26344
0.100624
-0.00042568
0.0406573
0.216852
0.425943
0.527728
0.424721
0.119258
-0.270719
-0.56831
-0.641094
-0.457786
-0.0946313
0.289753
0.541489
0.598437
0.496644
0.330495
0.205732
0.189235
0.278249
0.407981
0.49512
0.495195
0.43107
0.370005
0.37279
0.452586
0.564468
0.627472
0.563177
0.336699
-0.00501472
-0.334666
-0.51404
-0.469724
-0.222136
0.117328
0.394469
0.497437
0.404834
0.182493
-0.0443254
-0.151599
-0.0854953
0.113056
0.33898
0.490895
0.531005
0.489158
0.423225
0.380653
0.379821
0.188104
0.296128
0.428314
0.5254
0.560975
0.536717
0.466863
0.377535
0.306641
0.286901
0.325486
0.401489
0.482298
0.53951
0.550372
0.499136
0.393813
0.278627
0.214991
0.242216
0.35112
0.489375
0.593277
0.617869
0.547756
0.403008
0.242528
0.142146
0.152105
0.267549
0.43125
0.567115
0.620032
0.571961
0.441301
0.282421
0.169743
0.159452
0.257393
0.415904
0.560772
0.630122
0.594735
0.460406
0.27478
0.122939
0.0862416
0.19032
0.383932
0.564354
0.633932
0.545169
0.321225
0.0620214
-0.0940133
-0.0550843
0.1604
0.428465
0.589977
0.538776
0.275373
-0.0777978
-0.328568
-0.33592
-0.0989611
0.246886
0.520496
0.611688
0.525565
0.352607
0.211217
0.178483
0.245375
0.335218
0.373382
0.349916
0.320279
0.348266
0.444408
0.547522
0.558246
0.39826
0.069187
-0.318914
-0.599695
-0.65162
-0.451436
-0.0818763
0.291204
0.505424
0.49043
0.284858
0.00851409
-0.194031
-0.225552
-0.0758732
0.181129
0.427429
0.571969
0.598901
0.555141
0.507518
0.503693
0.547617
0.597144
0.585809
0.462534
0.235524
-0.0135625
-0.172059
-0.163449
0.00981114
0.261111
0.460021
0.500131
0.34483
0.0458549
-0.264027
-0.434791
-0.384258
-0.136301
0.193409
0.461029
0.577804
0.539734
0.402457
0.250714
0.166039
-0.0969719
0.0910256
0.346189
0.547823
0.617794
0.539315
0.347917
0.125354
-0.0266127
-0.0372241
0.0966696
0.310068
0.505493
0.602533
0.56158
0.386751
0.135355
-0.0893152
-0.185911
-0.10779
0.112646
0.37417
0.557544
0.583636
0.436694
0.169254
-0.105955
-0.265379
-0.237877
-0.035061
0.251633
0.491921
0.583758
0.491976
0.253026
-0.0306737
-0.229468
-0.252348
-0.0872977
0.194348
0.466641
0.611755
0.569302
0.349256
0.0385298
-0.219409
-0.297652
-0.154916
0.141713
0.443077
0.596015
0.519113
0.235082
-0.123005
-0.365245
-0.359148
-0.10876
0.243938
0.495385
0.49935
0.242879
-0.139853
-0.429298
-0.457192
-0.209514
0.169064
0.467209
0.543376
0.393131
0.130582
-0.0782459
-0.11331
0.0305511
0.254642
0.436958
0.518939
0.525807
0.520203
0.541976
0.575178
0.556777
0.420136
0.154236
-0.159996
-0.385535
-0.415459
-0.230906
0.0857476
0.379728
0.503456
0.390755
0.0835091
-0.280116
-0.53311
-0.567874
-0.371524
-0.0240383
0.328983
0.555843
0.610148
0.53015
0.400756
0.311878
0.315273
0.398584
0.495153
0.52742
0.460863
0.330003
0.215544
0.191844
0.280149
0.431792
0.551533
0.544921
0.361107
0.0296364
-0.326082
-0.545842
-0.526282
-0.272029
0.102476
0.427203
0.57463
0.512478
0.294377
0.0383211
-0.119507
-0.364539
-0.116306
0.232134
0.510382
0.597733
0.464493
0.167987
-0.160204
-0.368534
-0.364077
-0.15175
0.169242
0.451454
0.575542
0.491932
0.223392
-0.131428
-0.425089
-0.53474
-0.41557
-0.115201
0.234395
0.474966
0.502376
0.301791
-0.0479788
-0.394676
-0.586663
-0.54554
-0.286828
0.0808424
0.39228
0.511027
0.388573
0.0748499
-0.292585
-0.548255
-0.583295
-0.381576
-0.0228255
0.336384
0.537217
0.494565
0.221151
-0.167812
-0.490621
-0.595589
-0.4329
-0.0727568
0.311974
0.530847
0.477583
0.172634
-0.234338
-0.5272
-0.550952
-0.294994
0.100762
0.415673
0.481478
0.273625
-0.0795611
-0.361332
-0.39952
-0.173776
0.174271
0.431281
0.450147
0.228469
-0.0985752
-0.335449
-0.345648
-0.12817
0.193203
0.458234
0.576874
0.563891
0.497238
0.454341
0.461539
0.4808
0.443696
0.313194
0.12749
-0.016782
-0.0309588
0.106024
0.328803
0.514287
0.544104
0.360254
0.000770956
-0.396484
-0.663363
-0.694691
-0.479709
-0.102081
0.278575
0.508099
0.521659
0.356078
0.120836
-0.0515724
-0.0709176
0.0695363
0.295183
0.493763
0.584888
0.562758
0.483409
0.422604
0.431701
0.506847
0.588074
0.589215
0.442396
0.147198
-0.199764
-0.443764
-0.464258
-0.24375
0.114647
0.434825
0.569203
0.46431
0.169438
-0.172936
-0.387376
-0.53003
-0.251422
0.147438
0.466535
0.558249
0.386178
0.025434
-0.358223
-0.586617
-0.562198
-0.299774
0.0816941
0.408633
0.543927
0.437458
0.126186
-0.268067
-0.579157
-0.681492
-0.537359
-0.202569
0.180097
0.440022
0.466581
0.247718
-0.126922
-0.491908
-0.689095
-0.640808
-0.364476
0.0272741
0.35979
0.48645
0.354449
0.0173961
-0.376837
-0.652624
-0.696465
-0.489738
-0.111219
0.275298
0.497147
0.459626
0.1754
-0.232644
-0.573217
-0.689079
-0.527077
-0.153564
0.25738
0.507218
0.482315
0.19794
-0.202859
-0.507386
-0.555233
-0.323272
0.0638594
0.396784
0.51042
0.374034
0.0943131
-0.142923
-0.18443
-0.00918979
0.258084
0.429652
0.377284
0.108675
-0.232482
-0.449554
-0.41731
-0.152668
0.200243
0.463179
0.537282
0.443648
0.287111
0.186155
0.202032
0.307637
0.416718
0.453804
0.410989
0.345847
0.330677
0.398391
0.518494
0.612121
0.591816
0.404185
0.0715008
-0.291957
-0.53572
-0.560295
-0.356247
-0.00904963
0.323236
0.48823
0.417204
0.148663
-0.186229
-0.424496
-0.456094
-0.265863
0.0654514
0.394285
0.596124
0.632316
0.546847
0.428462
0.366083
0.400698
0.49935
0.573341
0.531005
0.337962
0.054643
-0.183183
-0.244001
-0.0848944
0.213192
0.486565
0.58502
0.44091
0.0948611
-0.300495
-0.549651
-0.544179
-0.26591
0.13646
0.457069
0.543899
0.361831
-0.00648056
-0.386657