# vtk DataFile Version 3.0
PFC simulation results
ASCII
DATASET STRUCTURED_POINTS
DIMENSIONS 128 128 1
ORIGIN 0 0 0
SPACING 1 1 1
POINT_DATA 16384
SCALARS psi double
LOOKUP_TABLE default
0.203734
0.206797
0.207408
0.205173
0.200868
0.196165
0.193003
0.192848
0.196149
0.202161
0.209168
0.215018
0.217798
0.216455
0.211162
0.203272
0.194862
0.188
0.184
0.182942
0.183697
0.184423
0.183331
0.179355
0.172432
0.163324
0.153165
0.143032
0.133769
0.126088
0.120755
0.118602
0.120246
0.125639
0.133738
0.142606
0.149981
0.154139
0.154623
0.152484
0.149916
0.149448
0.153079
0.161708
0.175026
0.191753
0.209996
0.227522
0.241919
0.250782
0.252122
0.245027
0.23037
0.211103
0.191749
0.177033
0.170192
0.17176
0.179521
0.189641
0.19842
0.203788
0.205884
0.206531
0.207884
0.210956
0.214779
0.21667
0.213539
0.203618
0.18782
0.170041
0.15613
0.1518
0.160298
0.180882
0.208834
0.236997
0.258095
0.266876
0.261395
0.24325
0.216914
0.188456
0.163989
0.148241
0.14355
0.14949
0.163157
0.180021
0.195155
0.204533
0.206042
0.19986
0.188109
0.173912
0.160275
0.149252
0.141675
0.137474
0.136266
0.137842
0.142308
0.149867
0.160466
0.173569
0.188152
0.202885
0.216364
0.227277
0.234516
0.237311
0.235408
0.22928
0.220227
0.210228
0.201463
0.195632
0.193346
0.193933
0.195806
0.197248
0.197248
0.195947
0.194462
0.194189
0.195968
0.199564
0.208239
0.213258
0.212514
0.206576
0.198331
0.191642
0.189583
0.193104
0.200718
0.209266
0.215305
0.216438
0.212092
0.203511
0.193108
0.183516
0.176707
0.173484
0.173384
0.174984
0.176437
0.176118
0.173156
0.167671
0.160625
0.153345
0.146936
0.141893
0.138086
0.135105
0.13274
0.131278
0.13142
0.133839
0.13865
0.145093
0.151654
0.156593
0.158624
0.157438
0.153825
0.149394
0.146052
0.145501
0.14892
0.156844
0.16916
0.185072
0.203043
0.220798
0.235562
0.244644
0.246242
0.240159
0.228026
0.212815
0.197823
0.185634
0.177534
0.173563
0.17298
0.174813
0.178211
0.182501
0.186998
0.190773
0.192629
0.191454
0.186838
0.179647
0.172214
0.167943
0.170295
0.1814
0.200789
0.224931
0.24798
0.263562
0.266899
0.256415
0.234291
0.205865
0.178106
0.157641
0.148931
0.15317
0.168222
0.189508
0.211443
0.22893
0.238508
0.238932
0.231139
0.217656
0.201677
0.186061
0.172615
0.161843
0.153229
0.145856
0.139062
0.13283
0.127815
0.125071
0.125689
0.130507
0.139914
0.153696
0.170859
0.189531
0.207108
0.220798
0.22845
0.229377
0.224754
0.217284
0.210174
0.205788
0.204647
0.205319
0.205334
0.202673
0.197064
0.190335
0.185569
0.185448
0.190694
0.199489
0.211422
0.216844
0.214145
0.205066
0.194387
0.187524
0.187842
0.195051
0.205459
0.213862
0.216013
0.210457
0.198969
0.185538
0.174516
0.168856
0.169183
0.173964
0.180464
0.185934
0.188537
0.187795
0.184522
0.180387
0.177266
0.176586
0.178845
0.183476
0.18909
0.194047
0.197094
0.197834
0.196798
0.195101
0.193866
0.193673
0.194305
0.194883
0.194298
0.191712
0.186893
0.180264
0.172708
0.165291
0.159069
0.155045
0.154215
0.157546
0.165751
0.178871
0.195822
0.214191
0.230551
0.241298
0.243751
0.237061
0.2226
0.203693
0.184805
0.170319
0.163212
0.164064
0.170878
0.179862
0.186863
0.188895
0.185183
0.177422
0.169142
0.164421
0.166458
0.176559
0.193816
0.215354
0.236917
0.253698
0.261435
0.257585
0.242247
0.218424
0.191487
0.167923
0.153659
0.152393
0.164485
0.186839
0.213896
0.239352
0.257968
0.266855
0.265889
0.257277
0.244548
0.231336
0.22034
0.212738
0.208155
0.205106
0.201699
0.196316
0.188081
0.177005
0.163887
0.150104
0.137428
0.127885
0.123525
0.125965
0.135737
0.151705
0.170983
0.189617
0.203897
0.21177
0.213632
0.212029
0.210304
0.210806
0.213601
0.216451
0.216161
0.210614
0.200377
0.188898
0.181029
0.180536
0.18796
0.20009
0.212169
0.21559
0.210598
0.200034
0.189669
0.185133
0.188889
0.198895
0.209672
0.215141
0.211711
0.200025
0.184599
0.171623
0.166096
0.169744
0.180623
0.19441
0.206498
0.213836
0.215797
0.213959
0.211137
0.21021
0.213181
0.220704
0.23208
0.245575
0.258945
0.270005
0.277158
0.279746
0.278124
0.273444
0.267191
0.260673
0.254634
0.24916
0.243876
0.238285
0.232063
0.225122
0.217462
0.208956
0.199293
0.188246
0.176184
0.164563
0.155999
0.153649
0.159956
0.175217
0.196712
0.219024
0.235647
0.241325
0.234158
0.216619
0.194928
0.176843
0.168562
0.172057
0.184192
0.198158
0.206589
0.20489
0.19333
0.177005
0.163679
0.16038
0.170321
0.191618
0.218222
0.242358
0.257189
0.25873
0.246685
0.224237
0.197006
0.17153
0.153721
0.147645
0.154753
0.173591
0.200067
0.228376
0.25247
0.267698
0.272041
0.266522
0.254658
0.241198
0.230602
0.225779
0.22747
0.234394
0.243968
0.253256
0.259751
0.26179
0.258581
0.249992
0.236345
0.218381
0.197447
0.175725
0.156211
0.14219
0.136232
0.1391
0.149192
0.162975
0.176357
0.186403
0.192491
0.196262
0.200327
0.206413
0.214
0.220329
0.221881
0.216571
0.205413
0.192589
0.183654
0.182707
0.190075
0.201928
0.209625
0.208768
0.201945
0.192636
0.186101
0.186398
0.193909
0.204846
0.213102
0.213493
0.204627
0.189859
0.17582
0.169262
0.173848
0.18854
0.208321
0.226717
0.238693
0.242538
0.240056
0.235288
0.232569
0.234869
0.243039
0.256013
0.271603
0.287368
0.301225
0.311722
0.318078
0.320143
0.31832
0.31345
0.306603
0.298797
0.290754
0.282808
0.275051
0.267596
0.260774
0.255046
0.250599
0.246819
0.242054
0.233994
0.220732
0.202109
0.180654
0.161405
0.150348
0.151881
0.166436
0.189571
0.213252
0.228974
0.231382
0.220726
0.202959
0.187181
0.181395
0.188538
0.2049
0.22188
0.230237
0.224707
0.206779
0.184315
0.16805
0.166517
0.181881
0.208849
0.237086
0.255686
0.257444
0.241251
0.212068
0.178836
0.151231
0.136552
0.13786
0.153781
0.179607
0.208917
0.235173
0.253045
0.259434
0.254078
0.239553
0.220595
0.202834
0.191283
0.189039
0.196625
0.212169
0.232306
0.253376
0.272435
0.28772
0.298509
0.304589
0.305695
0.301235
0.290488
0.273195
0.250255
0.224109
0.198464
0.177297
0.163503
0.157852
0.158841
0.163582
0.169301
0.174607
0.179836
0.186277
0.194759
0.204512
0.213074
0.217425
0.215737
0.208746
0.19979
0.193312
0.192488
0.197352
0.20465
0.20341
0.197298
0.190342
0.185748
0.186419
0.193079
0.203309
0.212284
0.215054
0.209271
0.196847
0.1835
0.176244
0.180011
0.195135
0.217064
0.238457
0.252544
0.256036
0.250223
0.239955
0.231177
0.228334
0.232827
0.243056
0.255714
0.267458
0.27613
0.281117
0.282972
0.282729
0.281338
0.279422
0.277307
0.275125
0.27284
0.270213
0.266834
0.26237
0.256964
0.251548
0.24774
0.247138
0.250224
0.255452
0.259181
0.256839
0.245009
0.223552
0.196589
0.171542
0.156315
0.155748
0.169116
0.190124
0.209632
0.21988
0.21815
0.207995
0.197305
0.194015
0.201654
0.217222
0.232657
0.239147
0.23197
0.213365
0.191903
0.178453
0.180604
0.198474
0.224276
0.245892
0.252441
0.239056
0.208871
0.171676
0.139976
0.124128
0.128634
0.151057
0.183664
0.216625
0.241201
0.251863
0.247097
0.229125
0.20292
0.174824
0.151058
0.136413
0.13333
0.141588
0.158665
0.18071
0.203822
0.225178
0.243607
0.259433
0.273727
0.28733
0.30008
0.310549
0.316397
0.315211
0.305532
0.28765
0.263831
0.237787
0.213568
0.194318
0.181451
0.174592
0.172244
0.172752
0.175038
0.178755
0.183881
0.190136
0.19667
0.202257
0.205872
0.207283
0.207228
0.20693
0.207179
0.207609
0.206818
0.193934
0.183688
0.179481
0.182957
0.192902
0.205512
0.215679
0.21898
0.213678
0.201862
0.188957
0.181606
0.184696
0.198924
0.220124
0.240839
0.253501
0.253732
0.242188
0.22409
0.206726
0.196189
0.194901
0.201047
0.209938
0.216449
0.217215
0.21168
0.201754
0.190567
0.181068
0.175124
0.173345
0.175419
0.180559
0.18773
0.195632
0.202681
0.207288
0.208526
0.206898
0.204664
0.205244
0.211677
0.224734
0.241715
0.256831
0.263346
0.256667
0.236911
0.209512
0.183326
0.166907
0.164715
0.175198
0.1918
0.206402
0.213391
0.212205
0.207002
0.203683
0.206072
0.213538
0.221487
0.224325
0.219108
0.207768
0.196558
0.192758
0.200278
0.216718
0.23386
0.241511
0.232641
0.207122
0.172327
0.140376
0.1232
0.127575
0.152355
0.189123
0.225696
0.250677
0.257046
0.243706
0.214969
0.178578
0.143137
0.115775
0.100654
0.0985414
0.107268
0.122765
0.140348
0.156004
0.167398
0.174348
0.178627
0.183164
0.190936
0.203918
0.222395
0.2448
0.268033
0.288166
0.30138
0.304939
0.298001
0.281977
0.26025
0.237251
0.217152
0.20263
0.194179
0.19028
0.188386
0.186263
0.183087
0.179799
0.178548
0.181429
0.189146
0.200307
0.211784
0.219919
0.221934
0.216968
0.206484
0.182691
0.171467
0.173332
0.186958
0.205871
0.221589
0.227415
0.221248
0.206403
0.190136
0.180479
0.182697
0.196947
0.218092
0.237722
0.247539
0.242767
0.224152
0.197647
0.171861
0.154381
0.148683
0.152978
0.161417
0.166919
0.164208
0.151711
0.13168
0.108765
0.0879446
0.0728208
0.0649265
0.0640663
0.0692025
0.0792245
0.0931516
0.109759
0.127056
0.142224
0.152394
0.156065
0.154426
0.151622
0.153437
0.164693
0.186508
0.214914
0.241847
0.258348
0.258566
0.242572
0.216574
0.19034
0.173059
0.169554
0.178646
0.194349
0.209148
0.217536
0.217987
0.212571
0.20492
0.198082
0.193502
0.191322
0.19139
0.194098
0.200339
0.210418
0.222559
0.232302
0.233826
0.222873
0.199635
0.169827
0.143184
0.129898
0.136422
0.162437
0.200439
0.238288
0.26364
0.268308
0.250817
0.216429
0.174932
0.137166
0.111585
0.102043
0.107401
0.122719
0.141294
0.156712
0.164386
0.162399
0.15161
0.135147
0.117433
0.103051
0.0957772
0.0980055
0.110578
0.13285
0.162768
0.196901
0.230612
0.258669
0.276456
0.281468
0.274442
0.259383
0.242211
0.22839
0.220581
0.21757
0.215198
0.208946
0.196862
0.181239
0.16796
0.163612
0.171715
0.190259
0.212115
0.22822
0.231814
0.221586
0.202301
0.17228
0.164259
0.174649
0.198091
0.222805
0.236762
0.233595
0.215451
0.19171
0.174289
0.171829
0.185635
0.209264
0.231643
0.24197
0.234206
0.209445
0.175324
0.142735
0.121258
0.115374
0.123033
0.137026
0.148309
0.14971
0.138468
0.116716
0.0899691
0.0645463
0.0451847
0.0338115
0.029766
0.0310678
0.0359443
0.0438237
0.0553138
0.0711834
0.0909111
0.11173
0.12899
0.138017
0.13669
0.127353
0.116777
0.113771
0.125243
0.152523
0.189915
0.226528
0.250768
0.255347
0.240433
0.21352
0.186231
0.16945
0.168904
0.18308
0.20438
0.222813
0.230313
0.223729
0.205563
0.182689
0.163749
0.15601
0.162689
0.181823
0.207102
0.230119
0.242961
0.240506
0.222173
0.192681
0.161074
0.137921
0.13171
0.145888
0.177558
0.21814
0.255827
0.27921
0.280992
0.26046
0.223758
0.181858
0.146906
0.128264
0.12967
0.148523
0.177355
0.206652
0.227799
0.235175
0.227008
0.205095
0.173752
0.138379
0.104088
0.0747656
0.0528117
0.0395239
0.0358064
0.0426622
0.0609874
0.0905774
0.128865
0.17037
0.207681
0.233961
0.245854
0.245157
0.238077
0.232095
0.231916
0.236778
0.240886
0.236981
0.221152
0.196142
0.17102
0.156937
0.160973
0.181658
0.209089
0.229822
0.233786
0.219441
0.194563
0.16598
0.164755
0.183866
0.213746
0.238655
0.245321
0.229977
0.200286
0.171341
0.15777
0.166122
0.191628
0.22088
0.238564
0.234603
0.20849
0.169235
0.131172
0.107563
0.105037
0.121377
0.147311
0.171
0.182952
0.17935
0.162693
0.139857
0.118707
0.104905
0.100202
0.102632
0.108093
0.112476
0.113503
0.111692
0.11014
0.113029
0.123286
0.140366
0.159457
0.172961
0.173949
0.160021
0.135538
0.110801
0.0981265
0.106313
0.136081
0.178947
0.220454
0.246355
0.248769
0.229472
0.199004
0.172078
0.161124
0.170754
0.195731
0.223533
0.240216
0.236757
0.213115
0.178521
0.147823
0.13503
0.146734
0.178763
0.217909
0.247778
0.255698
0.237776
0.200513
0.158447
0.128406
0.12264
0.144094
0.1859
0.234673
0.275519
0.296664
0.292639
0.26556
0.224322
0.181838
0.151119
0.141387
0.155463
0.189213
0.233205
0.27589
0.30708
0.320507
0.314802
0.29291
0.260448
0.223671
0.187695
0.155421
0.127378
0.102459
0.0793089
0.0578948
0.0405633
0.0318334
0.0365888
0.057228
0.091281
0.131218
0.167166
0.191422
0.202261
0.204646
0.2071
0.216281
0.232438
0.248719
0.255063
0.244569
0.218581
0.187278
0.1649
0.161908
0.178673
0.204847
0.225076
0.227687
0.211281
0.185578
0.166856
0.17388
0.198811
0.228962
0.247358
0.242512
0.215205
0.178568
0.151296
0.1475
0.168878
0.203752
0.233325
0.241359
0.222117
0.182982
0.140846
0.114046
0.113844
0.139737
0.180659
0.220826
0.246851
0.252855
0.241803
0.223019
0.207375
0.202544
0.210474
0.227741
0.247848
0.263958
0.270967
0.266725
0.252569
0.233238
0.215801
0.207282
0.211431
0.226086
0.242984
0.250841
0.24065
0.21062
0.168202
0.127883
0.105298
0.110071
0.140839
0.185257
0.225299
0.245335
0.239037
0.212
0.179045
0.157316
0.158067
0.181068
0.214597
0.241237
0.246547
0.226365
0.18936
0.153423
0.137043
0.149624
0.186063
0.228906
0.256941
0.255518
0.223614
0.174738
0.131163
0.113666
0.131735
0.179471
0.239019
0.288908
0.312548
0.303467
0.266417
0.21489
0.166164
0.135631
0.132347
0.157065
0.20289
0.257945
0.309094
0.345612
0.36181
0.357913
0.339082
0.313068
0.287407
0.267168
0.25391
0.245871
0.238962
0.228162
0.209161
0.180163
0.14343
0.105655
0.076282
0.0637628
0.0712898
0.0945399
0.123324
0.146757
0.159125
0.16283
0.166392
0.178496
0.20166
0.229662
0.250633
0.254128
0.23787
0.209932
0.184695
0.174619
0.182792
0.201177
0.215835
0.215838
0.20027
0.179039
0.176657
0.190436
0.215346
0.238024
0.243956
0.226542
0.192031
0.157169
0.140413
0.151418
0.185073
0.223829
0.247006
0.241715
0.20965
0.166534
0.134493
0.131077
0.160696
0.213011
0.268684
0.308828
0.323178
0.313582
0.291917
0.273756
0.270985
0.287133
0.317448
0.352712
0.383812
0.404482
0.411607
0.404301
0.383448
0.3524
0.317863
0.289245
0.275452
0.280209
0.298695
0.318267
0.323709
0.304562
0.26076
0.203743
0.152244
0.124249
0.128607
0.160512
0.203486
0.237078
0.246408
0.228863
0.194941
0.162942
0.149821
0.162499
0.194202
0.228018
0.245926
0.238508
0.21025
0.177497
0.15961
0.167796
0.198118
0.233191
0.251711
0.240344
0.201573
0.153531
0.121424
0.124444
0.165293
0.228483
0.288102
0.320011
0.311852
0.267056
0.202483
0.141277
0.103953
0.101466
0.132786
0.187007
0.24813
0.300345
0.332312
0.339718
0.325797
0.299716
0.273203
0.256518
0.25526
0.269263
0.293775
0.321816
0.346213
0.360529
0.359408
0.339395
0.30065
0.248647
0.194073
0.149711
0.125053
0.121542
0.131757
0.143704
0.147964
0.14327
0.136903
0.139529
0.157663
0.188611
0.221253
0.242336
0.244283
0.229581
0.208953
0.194459
0.192005
0.198288
0.204114
0.201646
0.190517
0.178589
0.194956
0.211344
0.228703
0.236439
0.226501
0.199598
0.166792
0.144749
0.146698
0.174208
0.215015
0.24878
0.25781
0.236825
0.196553
0.159042
0.146711
0.170694
0.224959
0.289425
0.340025
0.360026
0.347202
0.314085
0.281441
0.267972
0.281555
0.316886
0.360333
0.398238
0.423242
0.435307
0.437943
0.433188
0.419415
0.393658
0.356539
0.315649
0.284093
0.27415
0.289581
0.321671
0.352128
0.36158
0.339001
0.287288
0.222548
0.167406
0.140959
0.149857
0.185092
0.226441
0.252377
0.250342
0.222295
0.183153
0.152988
0.146688
0.166302
0.200297
0.230317
0.241651
0.231404
0.209605
0.192465
0.191733
0.206874
0.225268
0.230433
0.21312
0.178526
0.145091
0.134751
0.159755
0.214082
0.275152
0.314877
0.31336
0.268047
0.194701
0.120437
0.0720401
0.065149
0.0992687
0.159996
0.226008
0.276893
0.29899
0.288367
0.251186
0.201558
0.157093
0.133197
0.138114
0.170716
0.222131
0.280396
0.335469
0.381642
0.416371
0.437266
0.44036
0.421619
0.380833
0.324787
0.266608
0.220572
0.194982
0.187721
0.187893
0.182952
0.166803
0.143678
0.125394
0.123786
0.143073
0.176866
0.211648
0.234373
0.239281
0.229767
0.214654
0.201985
0.194753
0.191086
0.187978
0.185207
0.186199
0.218958
0.232466
0.235051
0.222621
0.197048
0.167432
0.147269
0.148177
0.173209
0.21366
0.251869
0.269433
0.256919
0.219889
0.177539
0.153852
0.165339
0.211907
0.276107
0.331291
0.354284
0.336239
0.286925
0.230445
0.19371
0.192998
0.226085
0.274679
0.315609
0.333792
0.329417
0.315512
0.307715
0.312973
0.324759
0.327981
0.310176
0.271375
0.226151
0.196456
0.199277
0.236301
0.291835
0.340225
0.358302
0.336112
0.281133
0.214875
0.163503
0.146123
0.165944
0.208953
0.251099
0.27031
0.257
0.218002
0.172486
0.142083
0.139962
0.164521
0.201267
0.231756
0.244054
0.238245
0.223938
0.2121
0.207194
0.205072
0.197778
0.181576
0.162293
0.153647
0.168676
0.209413
0.262123
0.302247
0.306697
0.266365
0.192038
0.110598
0.0531156
0.0408126
0.0762623
0.143786
0.217459
0.271546
0.288527
0.262921
0.201702
0.122156
0.0471772
-0.00151426
-0.010264
0.0220796
0.0841871
0.157363
0.224006
0.275198
0.312909
0.345324
0.378359
0.409474
0.428404
0.424333
0.394346
0.347166
0.299405
0.266394
0.253275
0.2523
0.248373
0.229184
0.193317
0.151495
0.120634
0.114327
0.135212
0.173568
0.212757
0.237927
0.242592
0.229797
0.208546
0.188656
0.176984
0.176157
0.185269
0.201141
0.244155
0.249772
0.232767
0.198679
0.161384
0.137715
0.139894
0.169463
0.215815
0.260092
0.282975
0.273477
0.23502
0.185336
0.149079
0.146024
0.180769
0.239448
0.295369
0.320908
0.300199
0.237229
0.15557
0.0885779
0.0635022
0.087417
0.143066
0.197621
0.220021
0.197631
0.143382
0.0887766
0.0656052
0.0871082
0.140222
0.193491
0.215833
0.194493
0.141726
0.0877393
0.0646205
0.0896711
0.156743
0.239688
0.3054
0.329181
0.304958
0.24682
0.182468
0.141146
0.14046
0.178106
0.233232
0.277182
0.287861
0.260111
0.207382
0.154606
0.125723
0.131866
0.166591
0.210868
0.244397
0.255858
0.246137
0.22416
0.199766
0.178916
0.16369
0.155637
0.158575
0.177463
0.213268
0.25766
0.292766
0.298215
0.262412
0.191366
0.109067
0.0478211
0.0330812
0.071278
0.147327
0.232313
0.296009
0.317355
0.289219
0.218169
0.121664
0.023753
-0.0507839
-0.0833097
-0.0673315
-0.0113576
0.0632442
0.130027
0.168832
0.175681
0.165148
0.16199
0.185702
0.237881
0.301017
0.349427
0.365001
0.347564
0.313849
0.286496
0.279948
0.291875
0.305475
0.300859
0.267813
0.212329
0.153946
0.115801
0.112531
0.142568
0.189265
0.230046
0.247824
0.238247
0.209974
0.179253
0.161876
0.166035
0.189192
0.220072
0.26557
0.260413
0.222947
0.170005
0.12754
0.117773
0.147565
0.204758
0.264206
0.299544
0.294796
0.251536
0.188924
0.1356
0.116298
0.139822
0.19461
0.253716
0.286332
0.270789
0.20441
0.10662
0.0126753
-0.041199
-0.0350822
0.0237187
0.102246
0.15628
0.151281
0.0804182
-0.0290476
-0.126975
-0.166062
-0.127212
-0.0296334
0.0794459
0.150108
0.155176
0.101189
0.0221768
-0.0377921
-0.0450702
0.00896815
0.105397
0.207627
0.278468
0.295939
0.261131
0.196502
0.136144
0.11088
0.133761
0.193476
0.260169
0.300983
0.296574
0.249967
0.184263
0.130862
0.113601
0.137041
0.18564
0.233867
0.260208
0.256453
0.228384
0.190099
0.156757
0.139462
0.143468
0.168522
0.209253
0.254806
0.289281
0.295472
0.262548
0.194373
0.112496
0.0494053
0.0338054
0.0759892
0.162167
0.260982
0.337831
0.368531
0.346011
0.279087
0.186556
0.0907705
0.0129537
-0.0301489
-0.0296546
0.0119683
0.0790625
0.145098
0.180612
0.165546
0.10142
0.0156087
-0.0492075
-0.0574755
-0.000778708
0.0977052
0.196655
0.259852
0.274953
0.256937
0.236048
0.238309
0.2698
0.313834
0.342308
0.333214
0.283468
0.210949
0.145767
0.114958
0.128228
0.173042
0.222258
0.249392
0.242252
0.207986
0.168161
0.146746
0.156934
0.193988
0.238168
0.279065
0.263302
0.208943
0.143714
0.10352
0.11249
0.168872
0.245752
0.305603
0.319175
0.279054
0.20311
0.126441
0.0842865
0.0943905
0.148766
0.218624
0.26823
0.269968
0.215037
0.117539
0.0105586
-0.0661031
-0.082622
-0.0329166
0.0608585
0.155622
0.204157
0.174903
0.0679322
-0.0796149
-0.206307
-0.255744
-0.205423
-0.07811
0.0697039
0.176646
0.205543
0.156013
0.0592763
-0.0372192
-0.0892387
-0.0730214
0.00625601
0.117963
0.21987
0.276237
0.27189
0.217259
0.143796
0.0908164
0.0873229
0.137126
0.216429
0.286469
0.314088
0.288279
0.224537
0.156062
0.11628
0.121499
0.163581
0.216669
0.252763
0.25596
0.22803
0.184829
0.147449
0.132911
0.148044
0.188025
0.238671
0.280739
0.295276
0.270113
0.206838
0.124731
0.0566237
0.0353525
0.0769729
0.17095
0.283976
0.375399
0.415169
0.395128
0.329449
0.245231
0.169006
0.117413
0.0963993
0.105724
0.142146
0.198285
0.259398
0.302408
0.300544
0.234559
0.107451
-0.046921
-0.173441
-0.223002
-0.179203
-0.0668846
0.0614758
0.154001
0.185943
0.168917
0.139863
0.137695
0.18028
0.254578
0.32559
0.357702
0.33465
0.267571
0.188968
0.135942
0.130374
0.167238
0.218702
0.251434
0.245946
0.206841
0.159321
0.1341
0.14876
0.196679
0.250714
0.282194
0.259006
0.195081
0.126454
0.094998
0.123046
0.198806
0.28259
0.329233
0.312161
0.236873
0.138804
0.0656949
0.0522416
0.101905
0.186779
0.263792
0.295798
0.266471
0.185122
0.082258
-0.00236809
-0.035323
-0.00238309
0.0861044
0.198648
0.293256
0.331365
0.290971
0.177321
0.0276205
-0.0990379
-0.148173
-0.0978737
0.0297398
0.18009
0.294059
0.334289
0.295125
0.198227
0.0824947
-0.0087559
-0.0423536
-0.00719564
0.0813952
0.187409
0.268722
0.294511
0.257924
0.179429
0.0991263
0.0588148
0.0806392
0.154571
0.243638
0.304516
0.31069
0.264823
0.195188
0.139308
0.123471
0.149592
0.196921
0.236299
0.246963
0.226126
0.18798
0.154759
0.145218
0.165986
0.209118
0.255813
0.283809
0.275757
0.226965
0.150665
0.0770052
0.0423356
0.0714519
0.162464
0.284532
0.391169
0.441698
0.419614
0.340056
0.242532
0.170433
0.14877
0.175266
0.229598
0.290561
0.346667
0.395006
0.433052
0.450618
0.428205
0.345832
0.200616
0.0214858
-0.135543
-0.214882
-0.192715
-0.0904089
0.0367696
0.129031
0.152728
0.114787
0.0555362
0.0252903
0.0560546
0.143565
0.250491
0.328684
0.346006
0.30197
0.226045
0.161193
0.140213
0.167538
0.218251
0.255172
0.25248
0.211105
0.157624
0.127575
0.142542
0.195476
0.254427
0.274448
0.249137
0.185136
0.1224
0.103772
0.146767
0.230418
0.306863
0.329546
0.279906
0.178772
0.077006
0.0281104
0.0576337
0.149263
0.256012
0.327188
0.333136
0.276018
0.185662
0.104398
0.0678828
0.0913567
0.166954
0.270235
0.370539
0.440386
0.461038
0.424976
0.339284
0.229745
0.137319
0.101296
0.137976
0.231054
0.34126
0.427596
0.464006
0.442887
0.371347
0.268426
0.162848
0.0867974
0.0652127
0.104636
0.187325
0.275807
0.328309
0.318149
0.247295
0.147488
0.0667042
0.0449635
0.0920922
0.182018
0.268208
0.31025
0.294527
0.238053
0.175912
0.140564
0.144697
0.177252
0.213568
0.231615
0.223898
0.199363
0.176251
0.171002
0.189246
0.222992
0.254455
0.264038
0.23931
0.18255
0.113974
0.0667704
0.0725722
0.143113
0.2593
0.376306
0.443244
0.427084
0.330485
0.19551
0.0862363
0.0549712
0.113383
0.22931
0.351032
0.439011
0.482009
0.492802
0.492208
0.490879
0.478881
0.431712
0.33176
0.190586
0.0519516
-0.0311472
-0.0290431
0.0460931
0.146484
0.214647
0.213186
0.142482
0.0400165
-0.037892
-0.0455202
0.0268176
0.147152
0.260238
0.318542
0.306389
0.244896
0.177922
0.146551
0.165334
0.215155
0.257785
0.261897
0.223205
0.166784
0.13061
0.140086
0.190199
0.248092
0.257019
0.235658
0.181209
0.132215
0.127496
0.178075
0.256739
0.313629
0.307227
0.230952
0.120514
0.0363803
0.0286035
0.105853
0.230178
0.340451
0.387078
0.356199
0.27359
0.189189
0.149709
0.17484
0.251701
0.347883
0.430772
0.481431
0.49836
0.491326
0.470666
0.441591
0.408025
0.379058
0.367273
0.378899
0.407931
0.441953
0.471838
0.49329
0.500491
0.482694
0.430425
0.346281
0.250414
0.175579
0.152623
0.192063
0.27303
0.35023
0.377367
0.332469
0.23043
0.116889
0.0453444
0.047963
0.117673
0.213744
0.286929
0.306796
0.274483
0.216524
0.166676
0.147118
0.159187
0.1874
0.212022
0.221147
0.215539
0.205187
0.201258
0.208717
0.223376
0.234047
0.228273
0.199478
0.153269
0.109459
0.095946
0.134261
0.223608
0.334219
0.416618
0.423271
0.333166
0.169824
0.00016811
-0.0951235
-0.066329
0.0755424
0.264994
0.421949
0.495793
0.484075
0.424467
0.370182
0.358466
0.388802
0.425953
0.427594
0.377566
0.298514
0.234746
0.221096
0.260641
0.3232
0.362589
0.34122
0.249623
0.114071
-0.0119485
-0.0730591
-0.0424854
0.0617518
0.186434
0.273375
0.290836
0.247289
0.18262
0.143098
0.153381
0.20255
0.253815
0.27083
0.242048
0.187552
0.144886
0.143021
0.181932
0.232504
0.232391
0.220447
0.183449
0.153277
0.160697
0.210147
0.272437
0.302137
0.268135
0.177469
0.0769619
0.0281872
0.0686668
0.18571
0.322324
0.410947
0.411382
0.331687
0.224042
0.155845
0.169676
0.259005
0.376764
0.466994
0.494905
0.461036
0.398094
0.351346
0.351632
0.398773
0.466056
0.520424
0.540401
0.519639
0.46485
0.397772
0.351423
0.352062
0.399239
0.461801
0.494876
0.466766
0.377834
0.262604
0.175203
0.160442
0.224247
0.326206
0.402876
0.40532
0.325359
0.198263
0.0838545
0.0345476
0.0668672
0.154526
0.24709
0.30029
0.297596
0.252469
0.195125
0.154359
0.144273
0.161341
0.19095
0.217557
0.232133
0.233873
0.227294
0.217886
0.208861
0.199831
0.187672
0.169885
0.149555
0.138337
0.15294
0.204263
0.284877
0.364252
0.397495
0.345636
0.200491
0.00248795
-0.166771
-0.223968
-0.132563
0.0716423
0.296131
0.442755
0.458015
0.353418
0.196898
0.0786048
0.0629548
0.156303
0.307364
0.440447
0.50392
0.496414
0.454158
0.420334
0.419827
0.447866
0.474353
0.461142
0.383997
0.249638
0.098923
-0.0101007
-0.0337202
0.0307755
0.142126
0.239188
0.276344
0.246961
0.182822
0.132438
0.130493
0.176654
0.238161
0.274097
0.263354
0.217174
0.169387
0.15189
0.172344
0.209988
0.203903
0.205222
0.190561
0.180929
0.196601
0.236747
0.274856
0.275427
0.221056
0.131126
0.0570678
0.0525433
0.136233
0.274358
0.397327
0.439314
0.375545
0.239412
0.109472
0.0654435
0.137684
0.287327
0.432037
0.495294
0.443964
0.302271
0.142383
0.048343
0.0710718
0.20306
0.383387
0.531275
0.586964
0.530284
0.381798
0.20154
0.0702011
0.048199
0.142467
0.301959
0.443212
0.495052
0.43388
0.292207
0.144467
0.0708406
0.110084
0.234578
0.368675
0.436369
0.402999
0.287712
0.148968
0.0532904
0.0403633
0.103997
0.200772
0.278639
0.305015
0.278182
0.220856
0.164674
0.134638
0.139675
0.171982
0.213604
0.24578
0.256445
0.243633
0.214861
0.183209
0.161015
0.153982
0.159806
0.172833
0.190912
0.21786
0.258105
0.306691
0.342621
0.332857
0.249077
0.0919667
-0.0922484
-0.223481
-0.229554
-0.0916932
0.135887
0.348108
0.442842
0.370105
0.15631
-0.100809
-0.278789
-0.294399
-0.138469
0.122877
0.379716
0.541754
0.583846
0.538623
0.46437
0.41538
0.417778
0.457979
0.492689
0.476018
0.388213
0.250303
0.116126
0.0434232
0.0590465
0.141441
0.234101
0.281215
0.260283
0.191949
0.124464
0.102602
0.139293
0.208975
0.267229
0.281456
0.250347
0.200596
0.165797
0.16309
0.183801
0.1753
0.191622
0.200681
0.210086
0.228998
0.253615
0.264303
0.239197
0.175249
0.100148
0.0622061
0.100058
0.211805
0.347644
0.433905
0.413348
0.279996
0.0926319
-0.0485886
-0.0600664
0.0702568
0.271457
0.431082
0.457467
0.321768
0.0730559
-0.177847
-0.314226
-0.271876
-0.0644145
0.219711
0.455643
0.545428
0.454834
0.218447
-0.0655778
-0.27256
-0.314566
-0.178439
0.0717066
0.319944
0.45644
0.43251
0.276081
0.0766087
-0.055431
-0.048778
0.0876141
0.274131
0.412416
0.441366
0.360915
0.221682
0.0959009
0.0409572
0.0717305
0.158242
0.248321
0.298134
0.291456
0.240989
0.177197
0.132422
0.126418
0.158653
0.210369
0.25478
0.27
0.248882
0.202195
0.153627
0.127597
0.135846
0.171663
0.216062
0.251054
0.269971
0.277729
0.281292
0.277547
0.249278
0.176579
0.0596759
-0.0646837
-0.133264
-0.0928118
0.0609622
0.268982
0.431837
0.456372
0.298788
-0.00423749
-0.334724
-0.551659
-0.565339
-0.367279
-0.0326133
0.303126
0.51676
0.562385
0.47261
0.327161
0.216319
0.199457
0.277136
0.395296
0.478939
0.475949
0.384391
0.250851
0.144228
0.115896
0.16797
0.253318
0.308604
0.295224
0.220547
0.13046
0.0797993
0.0974776
0.168976
0.248631
0.291602
0.281136
0.23367
0.182751
0.155494
0.157529
0.150205
0.181202
0.212108
0.236516
0.253509
0.259068
0.243586
0.200329
0.138564
0.0883625
0.0878271
0.157044
0.276697
0.389489
0.426521
0.344282
0.156172
-0.0588741
-0.19035
-0.161582
0.0189227
0.255963
0.419524
0.412289
0.211875
-0.112733
-0.423413
-0.585307
-0.530104
-0.274599
0.0783903
0.374887
0.488611
0.374463
0.0778288
-0.274924
-0.530077
-0.585292
-0.424105
-0.114573
0.209368
0.41056
0.420184
0.259519
0.0237083
-0.158902
-0.192371
-0.0649087
0.150529
0.344486
0.434829
0.401959
0.283769
0.149321
0.0646574
0.0618077
0.127298
0.216216
0.280424
0.292461
0.254177
0.191169
0.138589
0.123835
0.153098
0.208652
0.258664
0.274236
0.244872
0.185053
0.127903
0.107077
0.136396
0.201051
0.267062
0.302233
0.294394
0.256199
0.213924
0.186888
0.172872
0.153311
0.115975
0.075252
0.0693831
0.133428
0.267652
0.424959
0.526908
0.496451
0.294108
-0.0442359
-0.398962
-0.62672
-0.638002
-0.426167
-0.0717429
0.276948
0.479676
0.477882
0.306121
0.0676602
-0.111504
-0.144226
-0.0203454
0.194714
0.39494
0.492267
0.461034
0.341555
0.213535
0.152179
0.183722
0.271231
0.343835
0.345793
0.269498
0.156566
0.0712553
0.0604455
0.124608
0.220352
0.291628
0.304867
0.263936
0.200374
0.150457
0.134525
0.131524
0.175203
0.223604
0.257436
0.267983
0.253764
0.217012
0.165415
0.116366
0.0958316
0.126675
0.210904
0.318738
0.395464
0.385168
0.261493
0.0538513
-0.150612
-0.247085
-0.175773
0.0367576
0.285311
0.441159
0.414267
0.189124
-0.158891
-0.485384
-0.652579
-0.592737
-0.324106
0.0468621
0.358925
0.47883
0.358859
0.0469545
-0.323634
-0.591966
-0.652008
-0.485738
-0.160564
0.186673
0.412444
0.441371
0.287794
0.0397581
-0.175298
-0.251105
-0.157786
0.0481873
0.26235
0.393722
0.406781
0.323391
0.201072
0.103889
0.0734357
0.1121
0.187855
0.255879
0.282605
0.259804
0.205233
0.152112
0.13152
0.155167
0.208245
0.25751
0.270487
0.23509
0.168925
0.111739
0.102323
0.152868
0.238891
0.312918
0.332713
0.286156
0.199152
0.120843
0.0922702
0.120202
0.177555
0.229724
0.263314
0.293248
0.345326
0.430057
0.526242
0.58346
0.54064
0.357559
0.0559057
-0.264282
-0.472463
-0.481395
-0.284711
0.0356605
0.33402
0.473612
0.393826
0.13106
-0.193251
-0.428473
-0.473323
-0.31369
-0.0207267
0.276475
0.457355
0.474053
0.362587
0.214464
0.127981
0.1518
0.257155
0.363358
0.395463
0.329316
0.200485
0.080956
0.0358633
0.0836294
0.187244
0.282357
0.3192
0.288027
0.216575
0.148444
0.11738
0.120927
0.174215
0.234315
0.271487
0.272213
0.23993
0.189171
0.139511
0.111115
0.120048
0.171542
0.25316
0.333397
0.369994
0.326953
0.19605
0.0145985
-0.138626
-0.180787
-0.0752651
0.14041
0.369245
0.504303
0.475274
0.272229
-0.039976
-0.334916
-0.486747
-0.431027
-0.186279
0.146955
0.424089
0.529978
0.424193
0.147363
-0.185406
-0.429835
-0.48576
-0.334816
-0.0410915
0.270408
0.473957
0.504588
0.371116
0.142129
-0.0763623
-0.186067
-0.146247
0.00933625
0.197585
0.335541
0.380111
0.336148
0.242423
0.150614
0.102676
0.113348
0.166706
0.228136
0.263903
0.257716
0.217476
0.17019
0.146642
0.162622
0.207971
0.251659
0.260939
0.223318
0.15792
0.107323
0.111299
0.178128
0.274641
0.343789
0.338441
0.251043
0.123172
0.0254742
0.0146835
0.0974772
0.229612
0.349924
0.420031
0.440598
0.44103
0.455221
0.495921
0.540487
0.538034
0.439986
0.243264
0.0133081
-0.145635
-0.153363
0.000217495
0.243786
0.452944
0.511063
0.36197
0.0389977
-0.332856