# vtk DataFile Version 3.0
PFC-RG simulation results
ASCII
DATASET STRUCTURED_POINTS
DIMENSIONS 128 128 1
ORIGIN 0 0 0
SPACING 1 1 1
POINT_DATA 16384
SCALARS psi double
lOOKUP_TABLE default
0.318928
0.301402
0.262917
0.254247
0.288555
0.316
0.297665
0.269028
0.285216
0.328073
0.33131
0.293144
0.286101
0.336037
0.373338
0.347705
0.314894
0.343416
0.396851
0.396352
0.35586
0.356292
0.405194
0.425099
0.389795
0.368193
0.403764
0.439657
0.417868
0.378689
0.390837
0.436681
0.443584
0.403963
0.380731
0.404074
0.430958
0.421489
0.396152
0.3903
0.404305
0.414461
0.411431
0.402279
0.395538
0.397821
0.406555
0.411142
0.405811
0.40023
0.402571
0.406235
0.40631
0.408848
0.413637
0.408313
0.397189
0.404681
0.429123
0.431503
0.397284
0.374083
0.405249
0.452569
0.44978
0.408096
0.391683
0.409951
0.409348
0.375767
0.37101
0.421697
0.453366
0.411382
0.349811
0.331003
0.341469
0.348409
0.35862
0.392991
0.435411
0.426458
0.320393
0.172593
0.131994
0.25442
0.391515
0.415246
0.415223
0.45982
0.383789
0.114376
-0.0563177
0.109266
0.385187
0.465811
0.43044
0.445937
0.38457
0.144718
-0.0207149
0.108164
0.345448
0.436131
0.420502
0.4085
0.341148
0.193918
0.112395
0.181068
0.297217
0.359091
0.374453
0.357028
0.296528
0.230143
0.211444
0.235687
0.271375
0.309795
0.33873
0.328511
0.280628
0.244403
0.253338
0.281582
0.29149
0.287122
0.314573
0.294795
0.272965
0.286543
0.310915
0.299942
0.267391
0.272032
0.31734
0.331894
0.283409
0.247059
0.290165
0.345425
0.309145
0.229037
0.24486
0.342813
0.349648
0.227241
0.171224
0.293074
0.401117
0.296415
0.126672
0.17238
0.376524
0.409722
0.205932
0.0889203
0.252179
0.435724
0.342518
0.119885
0.116312
0.321742
0.398212
0.231502
0.0946717
0.188348
0.341109
0.31718
0.185561
0.163377
0.259332
0.307128
0.257622
0.22325
0.256328
0.285598
0.274506
0.276229
0.307797
0.309965
0.273242
0.273083
0.33156
0.35945
0.303227
0.249052
0.287708
0.361168
0.353447
0.276765
0.251007
0.309926
0.347565
0.296608
0.243031
0.287074
0.377782
0.377462
0.267324
0.187981
0.229344
0.303767
0.315693
0.307612
0.335282
0.350966
0.310148
0.256242
0.222474
0.199782
0.231073
0.334059
0.372868
0.269687
0.208831
0.317631
0.381461
0.23984
0.141337
0.287599
0.416378
0.291687
0.167976
0.292479
0.419591
0.299281
0.162636
0.255122
0.372968
0.295798
0.204983
0.288871
0.382619
0.317771
0.222195
0.233167
0.271314
0.262249
0.274472
0.335936
0.36448
0.32495
0.268853
0.23143
0.218619
0.243731
0.294997
0.325132
0.315343
0.296747
0.288452
0.272326
0.249551
0.256944
0.278839
0.261227
0.280017
0.319674
0.315721
0.260276
0.229297
0.269979
0.315793
0.280009
0.200671
0.198754
0.28242
0.305251
0.192554
0.0966494
0.178445
0.317855
0.263133
0.0541862
0.0136199
0.23122
0.366075
0.169121
-0.0766403
0.0265173
0.334327
0.354812
0.0380024
-0.11762
0.141526
0.403873
0.246776
-0.0810945
-0.0604011
0.267712
0.37958
0.11109
-0.100991
0.06344
0.322847
0.27871
0.0362778
-0.0166254
0.164833
0.272452
0.167668
0.0535573
0.095296
0.187562
0.188815
0.142463
0.145923
0.175073
0.170247
0.162238
0.19349
0.214969
0.177918
0.146221
0.194513
0.262699
0.239928
0.149749
0.123021
0.19218
0.242888
0.205094
0.161946
0.199008
0.250303
0.199407
0.0883604
0.0828924
0.210293
0.310048
0.298013
0.265061
0.25279
0.184781
0.0910451
0.12163
0.268907
0.372757
0.410901
0.439145
0.342399
0.070243
-0.0761614
0.131687
0.417981
0.469783
0.444423
0.51735
0.430846
0.0490175
-0.185356
0.0651872
0.438286
0.509239
0.442733
0.484234
0.424761
0.113201
-0.095104
0.0842904
0.37804
0.457088
0.409886
0.397304
0.333945
0.175608
0.0981809
0.193914
0.32315
0.366796
0.354862
0.325339
0.274525
0.228534
0.223583
0.252285
0.290654
0.32583
0.334879
0.298098
0.249904
0.249529
0.256282
0.237471
0.281456
0.324449
0.296836
0.240079
0.246377
0.308489
0.323974
0.259367
0.213966
0.270289
0.356133
0.339452
0.232792
0.19771
0.308741
0.416391
0.350463
0.196529
0.198354
0.379189
0.471562
0.321154
0.154985
0.245088
0.466381
0.472301
0.24649
0.146591
0.337159
0.518213
0.400051
0.171467
0.198492
0.438454
0.513301
0.312953
0.160829
0.28896
0.484389
0.444973
0.247478
0.197228
0.343512
0.440482
0.349943
0.225605
0.236954
0.326891
0.346644
0.283857
0.240484
0.259827
0.291347
0.290973
0.271065
0.258116
0.260865
0.279805
0.304281
0.308002
0.280361
0.252527
0.263834
0.304738
0.324668
0.302817
0.274002
0.268925
0.262103
0.222501
0.200857
0.270709
0.372663
0.370329
0.283318
0.254613
0.274605
0.219288
0.155433
0.247548
0.393612
0.379224
0.303182
0.356577
0.375358
0.177596
0.0402102
0.227974
0.446382
0.380063
0.283368
0.411521
0.448726
0.153686
-0.055887
0.171575
0.457979
0.40067
0.271992
0.385238
0.454073
0.215033
0.0139302
0.16943
0.393492
0.369514
0.286433
0.356792
0.398897
0.262123
0.139413
0.183908
0.265255
0.276101
0.294486
0.35375
0.366189
0.303629
0.237521
0.219621
0.244313
0.286106
0.313837
0.308238
0.290508
0.290907
0.271041
0.265729
0.29944
0.306624
0.268363
0.258812
0.316387
0.361623
0.324379
0.272976
0.307355
0.386331
0.395423
0.342769
0.339896
0.405335
0.439137
0.405204
0.388928
0.437085
0.475089
0.443684
0.406893
0.441017
0.500931
0.493104
0.43229
0.419926
0.480365
0.52177
0.481302
0.423695
0.439136
0.503159
0.515268
0.456358
0.417042
0.454349
0.505066
0.487635
0.431137
0.420627
0.460382
0.476547
0.443221
0.418068
0.43203
0.441439
0.415726
0.396767
0.415721
0.426656
0.391508
0.356365
0.374479
0.409126
0.394598
0.349972
0.346204
0.385007
0.395983
0.355477
0.325193
0.351467
0.398202
0.40879
0.379702
0.344447
0.326212
0.328768
0.340557
0.349164
0.372877
0.420194
0.412155
0.284284
0.163645
0.220836
0.367219
0.403478
0.387433
0.452603
0.426512
0.149243
-0.059991
0.129248
0.436722
0.470044
0.406794
0.496843
0.452147
0.0656895
-0.185013
0.092233
0.475398
0.488155
0.389178
0.495781
0.480337
0.0883498
-0.191813
0.0653384
0.457636
0.497019
0.396199
0.460544
0.442116
0.140156
-0.0682686
0.118767
0.397508
0.436336
0.3671
0.363232
0.313178
0.170461
0.123725
0.242178
0.355078
0.355965
0.314169
0.290634
0.268569
0.24156
0.237669
0.268855
0.313665
0.336139
0.291924
0.322498
0.324276
0.277275
0.240091
0.281278
0.34988
0.330015
0.241532
0.237248
0.340725
0.366874
0.234491
0.155465
0.29471
0.437189
0.308145
0.0770225
0.133838
0.423613
0.476146
0.169304
-0.0239122
0.221779
0.530794
0.402983
0.0246688
-0.00656352
0.366846
0.556914
0.259757
-0.0577498
0.105593
0.489346
0.483506
0.0962252
-0.0651212
0.243653
0.527079
0.343366
-0.00605757
0.0226211
0.361449
0.472164
0.209543
0.0111166
0.165809
0.393115
0.348426
0.15953
0.147265
0.29505
0.345924
0.253267
0.207072
0.280397
0.339448
0.302521
0.256627
0.277398
0.310124
0.293523
0.267087
0.284081
0.316707
0.31134
0.269598
0.232332
0.234254
0.283877
0.340424
0.344685
0.311714
0.298071
0.265151
0.1576
0.100133
0.232016
0.40032
0.39425
0.34544
0.424205
0.400034
0.0894441
-0.120193
0.124205
0.464117
0.469328
0.384395
0.499899
0.471154
0.0510994
-0.230104
0.0701086
0.49457
0.515477
0.405036
0.512724
0.494176
0.0727085
-0.22999
0.0477486
0.471437
0.506836
0.390446
0.469943
0.468578
0.140786
-0.102485
0.0910141
0.389051
0.422822
0.363428
0.412919
0.397868
0.218093
0.103758
0.179579
0.274908
0.287248
0.308089
0.360676
0.350298
0.265572
0.208597
0.236431
0.297336
0.320883
0.289843
0.343414
0.314055
0.245893
0.236263
0.299054
0.323667
0.235325
0.146164
0.209421
0.340778
0.291579
0.0665977
0.00233946
0.239533
0.407007
0.168785
-0.163947
-0.05671
0.357037
0.412817
-0.0244443
-0.286768
0.0542528
0.471711
0.293951
-0.215139
-0.252647
0.247964
0.496254
0.0942585
-0.326025
-0.0998034
0.414434
0.401913
-0.116048
-0.321093
0.104959
0.485898
0.229252
-0.246585
-0.195332
0.284371
0.439033
0.0586759
-0.235151
-0.00784613
0.347723
0.29951
-0.00536554
-0.0662349
0.164116
0.301742
0.187183
0.0648866
0.127056
0.249269
0.255052
0.181485
0.164304
0.220178
0.264326
0.253692
0.21796
0.19685
0.202202
0.215477
0.213736
0.218305
0.266849
0.307898
0.246801
0.13846
0.13734
0.225013
0.258364
0.271432
0.360547
0.363476
0.142538
-0.00516877
0.192771
0.430258
0.367334
0.271853
0.421415
0.462166
0.125586
-0.100911
0.18065
0.505773
0.407391
0.250075
0.415447
0.501414
0.159956
-0.108922
0.153555
0.49824
0.418995
0.252565
0.403283
0.501141
0.183368
-0.093931
0.128303
0.46226
0.429624
0.28924
0.379528
0.428486
0.192244
0.0167045
0.182229
0.398383
0.3861
0.306533
0.311179
0.277167
0.178883
0.187027
0.311425
0.370982
0.315426
0.266532
0.280278
0.288075
0.255781
0.29433
0.316406
0.263783
0.236356
0.288212
0.344333
0.310635
0.218648
0.202246
0.311209
0.409954
0.342467
0.182603
0.179242
0.382142
0.502217
0.325744
0.0976252
0.18841
0.488514
0.532313
0.233423
0.0560114
0.291301
0.578108
0.461555
0.121333
0.0974309
0.432669
0.598017
0.329401
0.0508594
0.204463
0.54786
0.53818
0.193327
0.061172
0.349459
0.601744
0.423587
0.102097
0.142481
0.471743
0.571027
0.297452
0.0873023
0.249357
0.505372
0.465622
0.222204
0.147389
0.307891
0.429582
0.350386
0.215807
0.209215
0.300766
0.342662
0.290895
0.236889
0.259443
0.324526
0.340198
0.278003
0.217216
0.245573
0.328687
0.354228
0.312505
0.297389
0.301007
0.222862
0.127548
0.193012
0.363611
0.4247
0.402419
0.430495
0.350028
0.0326079
-0.152687
0.115316
0.479933
0.522047
0.469359
0.572838
0.471622
-0.0324732
-0.331661
0.0269408
0.520498
0.578073
0.485943
0.589688
0.506541
-0.0199754
-0.368231
-0.024063
0.503689
0.590686
0.487451
0.576228
0.516367
0.0251209
-0.32953
-0.0306905
0.468922
0.568472
0.468534
0.52136
0.469283
0.0958937
-0.165002
0.0366483
0.362202
0.437482
0.401874
0.424877
0.366161
0.193491
0.12799
0.222845
0.296352
0.293678
0.316513
0.358237
0.317124
0.220488
0.335319
0.285974
0.217716
0.258084
0.35832
0.371225
0.297541
0.277294
0.35428
0.414396
0.390559
0.364906
0.405821
0.454648
0.448674
0.43111
0.458963
0.49962
0.494804
0.462531
0.465533
0.508038
0.528936
0.498082
0.465247
0.484632
0.529775
0.532494
0.488696
0.466555
0.500986
0.539203
0.522118
0.475608
0.471153
0.515655
0.539994
0.505174
0.46341
0.476993
0.522713
0.528862
0.485124
0.456365
0.480871
0.513981
0.499632
0.458346
0.44869
0.467252
0.458225
0.419448
0.41133
0.435008
0.417388
0.35245
0.331106
0.382078
0.409866
0.35411
0.29456
0.317969
0.370736
0.350543
0.291397
0.313728
0.399906
0.40143
0.30253
0.255402
0.295821
0.302044
0.286144
0.364271
0.42788
0.301055
0.164508
0.269062
0.399993
0.279958
0.172358
0.350857
0.470883
0.237444
0.0682904
0.305998
0.501422
0.273396
0.0769024
0.308083
0.506725
0.268083
0.0590236
0.29732
0.5156
0.28041
0.052489
0.280113
0.514465
0.295924
0.0590312
0.269381
0.506933
0.3069
0.0774026
0.276322
0.502213
0.301448
0.0627914
0.235506
0.466454
0.336032
0.151738
0.265266
0.395018
0.262431
0.143208
0.270877
0.401424
0.340401
0.256591
0.260528
0.246458
0.214475
0.271601
0.359254
0.337328
0.251337
0.363664
0.271583
0.211616
0.289675
0.363886
0.289914
0.199789
0.278696
0.404104
0.322038
0.123774
0.155252
0.410783
0.466841
0.17981
-0.0101489
0.231643
0.548657
0.427508
0.0347028
-0.0143796
0.370482
0.588794
0.288511
-0.0662934
0.0837805
0.506346
0.534829
0.120228
-0.0859588
0.242343
0.588284
0.40564
-0.0196609
-0.0196065
0.403732
0.581677
0.23342
-0.0937252
0.111031
0.521667
0.494705
0.0792656
-0.0728416
0.265115
0.556124
0.357197
-0.00056881
0.0342657
0.372235
0.47319
0.219953
0.0495572
0.203846
0.389348
0.326275
0.180801
0.21437
0.348313
0.350547
0.234034
0.199765
0.289162
0.345692
0.304601
0.276828
0.302037
0.272566
0.185681
0.193087
0.306003
0.369101
0.376526
0.416948
0.349246
0.0532346
-0.140443
0.0954859
0.455311
0.520474
0.477269
0.56634
0.450026
-0.0546677
-0.344427
0.0234157
0.521065
0.581386
0.495648
0.598816
0.49649
-0.0473962
-0.382611
-0.0109328
0.521537
0.596123
0.496137
0.597402
0.521131
-0.0134259
-0.383643
-0.045109
0.49912
0.598971
0.495207
0.583404
0.524109
0.023785
-0.344972
-0.0504931
0.457607
0.56993
0.47494
0.518916
0.462101
0.106449
-0.137
0.0528112
0.35823
0.43314
0.388232
0.372053
0.307524
0.205078
0.202204
0.275257
0.297854
0.28989
0.316116
0.258135
0.250868
0.326624
0.321093
0.174196
0.107565
0.264313
0.391045
0.202105
-0.0825615
-0.00300273
0.35852
0.404381
-0.0219949
-0.292921
0.0398877
0.47471
0.306995
-0.23347
-0.305906
0.213835
0.511587
0.109634
-0.367578
-0.168121
0.396982
0.436468
-0.115093
-0.389483
0.0468951
0.506542
0.26432
-0.298609
-0.295797
0.267429
0.50312
0.0414227
-0.388932
-0.11185
0.434557
0.393771
-0.162453
-0.358119
0.105447
0.496669
0.218032
-0.271318
-0.211051
0.275202
0.431979
0.0768094
-0.184649
0.0272503
0.336278
0.302282
0.0805837
0.0617538
0.241824
0.320992
0.219825
0.152037
0.234335
0.321893
0.289939
0.222087
0.207632
0.199646
0.193219
0.266039
0.349499
0.301485
0.228896
0.30034
0.335334
0.139675
0.00985455
0.23245
0.462201
0.344617
0.218866
0.402736
0.481168
0.138109
-0.103012
0.185393
0.511614
0.397957
0.242862
0.429041
0.509865
0.1371
-0.135495
0.159219
0.518511
0.420079
0.247743
0.421084
0.518284
0.157324
-0.136641
0.13816
0.511319
0.428563
0.240956
0.397135
0.512501
0.185736
-0.103785
0.139096
0.484888
0.406575
0.221119
0.347839
0.471849
0.247525
0.022768
0.153518
0.359283
0.328911
0.254437
0.331375
0.391237
0.313754
0.232784
0.227896
0.245796
0.282374
0.234817
0.257248
0.316533
0.367772
0.31485
0.196696
0.198069
0.357751
0.447912
0.301615
0.118727
0.20836
0.480358
0.516767
0.223119
0.0385705
0.271643
0.577386
0.46984
0.103225
0.0529491
0.406617
0.611818
0.343589
0.0232576
0.157424
0.537025
0.564782
0.197276
0.0144954
0.305147
0.6113
0.450947
0.0778471
0.0805925
0.454832
0.611299
0.305174
0.0205479
0.205635
0.567881
0.537584
0.164912
0.0369068
0.350468
0.60935
0.412546
0.0776799
0.123294
0.458391
0.559941
0.300406
0.0997126
0.234487
0.456337
0.437695
0.247283
0.172171
0.277167
0.371098
0.33269
0.262195
0.272356
0.308496
0.288186
0.256976
0.270077
0.294131
0.330951
0.401893
0.372476
0.146818
-0.00960385
0.171216
0.439395
0.456016
0.40882
0.518346
0.447105
-0.00739522
-0.275393
0.0744134
0.524955
0.534054
0.425458
0.549171
0.495399
0.000229275
-0.308231
0.0502742
0.527562
0.54075
0.42021
0.546901
0.513416
0.0223118
-0.313551
0.0226866
0.513466
0.546431
0.419777
0.540663
0.52744
0.0496145
-0.309442
-0.000912268
0.494709
0.548271
0.423638
0.531216
0.520878
0.0694834
-0.279981
-0.010863
0.444862
0.514693
0.40102
0.448751
0.434719
0.158556
-0.0291404
0.14288
0.387922
0.410307
0.318565
0.278747
0.273501
0.2707
0.220174
0.297042
0.352391
0.340638
0.305587
0.318168
0.377123
0.408978
0.396493
0.405453
0.45168
0.474058
0.458601
0.461505
0.498346
0.518457
0.498592
0.480261
0.498587
0.528912
0.52805
0.49954
0.488135
0.513189
0.538432
0.525317
0.493176
0.492179
0.525436
0.541856
0.514981
0.486012
0.500727
0.536862
0.537657
0.500961
0.483555
0.512515
0.542639
0.526782
0.488925
0.486141
0.520889
0.539298
0.513167
0.480908
0.488514
0.521046
0.524694
0.488756
0.464275
0.480376
0.492622
0.462236
0.430352
0.435098
0.427857
0.37144
0.331225
0.360068
0.395783
0.369349
0.305546
0.26182
0.271657
0.33522
0.383505
0.352419
0.324393
0.380463
0.359194
0.136174
0.00165639
0.223021
0.491715
0.454124
0.366214
0.4936
0.462919
0.0272016
-0.243749
0.0932613
0.521379
0.507074
0.393538
0.534481
0.502312
0.0176541
-0.291787
0.059327
0.525564
0.527934
0.403782
0.537229
0.515288
0.0325185
-0.300969
0.0324371
0.515316
0.537451
0.403922
0.527697
0.52526
0.059598
-0.290977
0.0182147
0.502248
0.534639
0.394664
0.507677
0.519303
0.0896087
-0.246055
0.0259299
0.458588
0.482666
0.351194
0.440715
0.47436
0.187898
-0.0429627
0.110784
0.35019
0.352999
0.277995
0.320453
0.370141
0.310992
0.27982
0.362789
0.314022
0.194691
0.203615
0.356824
0.412474
0.232924
0.0779094
0.239235
0.498644
0.408959
0.0600283
0.00555975
0.366105
0.585857
0.304794
-0.0465961
0.0878172
0.505292
0.551052
0.147182
-0.0766373
0.232176
0.590681
0.433982
0.00459082
-0.0239488
0.394155
0.60146
0.270341
-0.0797091
0.1019
0.529299
0.529012
0.100272
-0.0836291
0.265373
0.597667
0.391236
-0.0288709
-0.00417191
0.424003
0.584277
0.229566
-0.0819187
0.132801
0.5311
0.492718
0.0898326
-0.0459286
0.275187
0.530991
0.34488
0.0542528
0.105698
0.356459
0.401294
0.240319
0.174121
0.275044
0.351036
0.29518
0.210331
0.239858
0.36846
0.40385
0.245918
0.109582
0.214409
0.376551
0.340788
0.290294
0.430169
0.442964
0.0969085
-0.129099
0.160401
0.503868
0.426589
0.288901
0.452463
0.489668
0.0907825
-0.169665
0.153481
0.525945
0.432201
0.274054
0.448618
0.510685
0.115083
-0.16813
0.138936
0.521762
0.439295
0.270721
0.4391
0.521571
0.138959
-0.167977
0.115096
0.51068
0.449146
0.275184
0.43302
0.52583
0.153727
-0.167452
0.0938184
0.491455
0.453875
0.29205
0.431094
0.506973
0.160605
-0.12871
0.0995246
0.440177
0.413958
0.271125
0.33862
0.382884
0.202284
0.0933303
0.257762
0.422251
0.35488
0.329599
0.410428
0.255414
0.0697396
0.126803
0.348614
0.369761
0.072753
-0.139752
0.095511
0.442511
0.298988
-0.19502
-0.281604
0.204375
0.504982
0.121502
-0.363813
-0.187115
0.380927
0.4464
-0.100584
-0.404742
0.0128877
0.498118
0.287803
-0.289675
-0.327367
0.234723
0.513127
0.0695361
-0.398754
-0.155042
0.417224
0.417588
-0.154281
-0.398803
0.068085
0.512051
0.236299
-0.324104
-0.288766
0.285223
0.49708
0.0183844
-0.396172
-0.0992343
0.438311
0.379366
-0.165559
-0.335167
0.117372
0.473727
0.22139
-0.179171
-0.104775
0.27488
0.391744
0.181811
0.0404733
0.150904
0.316542
0.331302
0.235946
0.220709
0.335363
0.365632
0.167504
0.00291868
0.163858
0.433286
0.463284
0.409765
0.499688
0.419689
-0.0370597
-0.314405
0.035737
0.51829
0.574277
0.489501
0.593718
0.486008
-0.0620872
-0.384417
0.00469841
0.533017
0.593594
0.497869
0.60507
0.507216
-0.0481653
-0.396648
-0.0211663
0.523608
0.601728
0.499441
0.601714
0.523403
-0.0214367
-0.396651
-0.0479585
0.507276
0.605012
0.498004
0.593615
0.532251
0.00364518
-0.384583
-0.0615381
0.486654
0.594659
0.490446
0.575414
0.521695
0.0431831
-0.303633
-0.0276175
0.423139
0.500332
0.415311
0.477155
0.44669
0.165678
0.0104345
0.198319
0.385401
0.315224
0.331794
0.407733
0.251424
0.137324
0.245425
0.420714
0.413006
0.214687
0.106933
0.294929
0.542085
0.452622
0.120601
0.0599998
0.392543
0.604523
0.34716
0.0144074
0.133388
0.522637
0.570057
0.199201
-0.00693981
0.276965
0.606216
0.464602
0.0755017
0.0509448
0.42996
0.617328
0.319205
0.0050468
0.169159
0.553457
0.554148
0.171538
0.00826261
0.320987
0.618064
0.433385
0.058352
0.0825266
0.467091
0.607304
0.283698
0.00603435
0.209058
0.569776
0.522765
0.151728
0.0435187
0.353693
0.586036
0.401962
0.122652
0.164251
0.410718
0.487133
0.33356
0.190986
0.222827
0.36205
0.422414
0.318259
0.205805
0.262592
0.35942
0.283511
0.190919
0.321873
0.445754
0.268868
0.0965815
0.281411
0.473213
0.294152
0.125237
0.334517
0.491278
0.225336
0.0210097
0.28314
0.516736
0.293472
0.0917969
0.326875
0.513953
0.24369
0.0205301
0.278101
0.520576
0.297533
0.0809087
0.311737
0.51892
0.261651
0.0207848
0.261921
0.51898
0.311521
0.080877
0.297772
0.520562
0.277672
0.0202765
0.243836
0.513793
0.326015
0.0906097
0.292266
0.515963
0.282582
0.0185878
0.220986
0.48948
0.338748
0.132287
0.295941
0.468333
0.279283
0.0986801
0.266114
0.437368
0.313306
0.189753
0.289302
0.345607
0.220108
0.326533
0.334023
0.248502
0.298633
0.417568
0.414504
0.356524
0.397673
0.480146
0.486669
0.458589
0.479145
0.521231
0.523122
0.497132
0.492767
0.516355
0.533062
0.521895
0.501571
0.502864
0.525296
0.53609
0.51793
0.497856
0.507849
0.533742
0.535153
0.508993
0.495977
0.517127
0.539778
0.52804
0.499582
0.499059
0.528045
0.541261
0.517261
0.49306
0.506423
0.536351
0.536108
0.506193
0.492412
0.514542
0.53803
0.527312
0.497095
0.490182
0.516551
0.535733
0.511234
0.471376
0.475478
0.51138
0.498102
0.431832
0.412684
0.451015
0.425807
0.338827
0.345177
0.41946
0.355919
0.197634
0.212356
0.377438
0.425997
0.389287
0.448582
0.397182
0.0327325
-0.213439
0.080156
0.513811
0.576635
0.508475
0.600647
0.471271
-0.0817673
-0.394994
0.00353553
0.537241
0.603416
0.513269
0.615281
0.498895
-0.0693885
-0.409872
-0.0188531
0.53063
0.609181
0.513233
0.613871
0.515405
-0.0458996
-0.412502
-0.045508
0.515669
0.613815
0.513217
0.60935
0.530577
-0.0192451
-0.409969
-0.0688059
0.499597
0.615531
0.513065
0.603018
0.53744
0.00449753
-0.395288
-0.084273
0.469516
0.602307
0.510945
0.574048
0.507579
0.0794622
-0.213532
0.019797
0.38298
0.450738
0.398453
0.426108
0.363339
0.192914
0.335526
0.220315
0.181522
0.348437
0.406321
0.172423
0.0427083
0.30106
0.53184
0.310554
-0.0255456
0.0859265
0.490475
0.548758
0.161818
-0.0636692
0.230838
0.588677
0.449142
0.027016
-0.0179529
0.386622
0.60728
0.295359
-0.0626025
0.0949001
0.521348
0.54656
0.129381
-0.075848
0.253333
0.599802
0.418528
-0.00671604
-0.00839453
0.415943
0.599041
0.252384
-0.080053
0.123379
0.542572
0.519462
0.0915351
-0.0694016
0.287301
0.60149
0.383365
-0.0229623
0.0158516
0.433671
0.576282
0.225891
-0.0670774
0.145557
0.513889
0.461871
0.104226
0.0257958
0.311564
0.462862
0.288233
0.160671
0.267291
0.331785
0.241705
0.240471
0.357556
0.352521
0.276451
0.350495
0.389111
0.155648
-0.00653979
0.234865
0.48324
0.349902
0.215834
0.415739
0.497956
0.140068
-0.101582
0.200444
0.520222
0.380076
0.214037
0.414618
0.512092
0.148343
-0.114443
0.183309
0.522645
0.395593
0.2177
0.407853
0.518459
0.164365
-0.116807
0.164602
0.518581
0.407736
0.21764
0.395744
0.52267
0.183037
-0.114585
0.148602
0.512387
0.414719
0.214136
0.380345
0.52111
0.202366
-0.0994772
0.141344
0.498994
0.41765
0.218665
0.352899
0.4885
0.246082
0.0019497
0.150906
0.39092
0.378872
0.308494
0.369409
0.379471
0.281474
0.328084
0.187103
0.171971
0.344155
0.330328
-0.00538035
-0.148154
0.199857
0.473601
0.144067
-0.324294
-0.181027
0.366007
0.446847
-0.084236
-0.400769
-0.00250411
0.48954
0.301324
-0.276993
-0.34005
0.212842
0.515142
0.0909664
-0.395403
-0.18027
0.399345
0.433293
-0.132273
-0.409381
0.0373419
0.506408
0.261079
-0.313331
-0.314635
0.259103
0.506581
0.039325
-0.408272
-0.133204
0.432113
0.400233
-0.177297
-0.392946
0.0904895
0.513504
0.215325
-0.332098
-0.271006
0.298017
0.484263
0.00813496
-0.372889
-0.0685314
0.429829
0.359473
-0.106391
-0.194993
0.198904
0.42842
0.224119
0.0405921
0.169026
0.333847
0.333436
0.318648
0.306032
0.145932
0.0139849
0.190441
0.455416
0.469855
0.429067
0.543046
0.444637
-0.0471751
-0.314027
0.0675842
0.537411
0.548457
0.444885
0.569491
0.493868
-0.0293381
-0.340258
0.038844
0.534066
0.556162
0.443215
0.567221
0.509444
-0.00767646
-0.341792
0.017054
0.523291
0.561946
0.442905
0.561987
0.523174
0.0167865
-0.341891
-0.00748788
0.509569
0.567054
0.443025
0.556035
0.533642
0.0381852
-0.340529
-0.0290626
0.494166
0.569578
0.445233
0.549238
0.537513
0.0664124
-0.313284
-0.0403249
0.456025
0.552356
0.428721
0.460373
0.456089
0.210539
0.0298145
0.156431
0.348328
0.391382
0.279677
0.302055
0.32348
0.409486
0.389547
0.18639
0.120622
0.378014
0.57368
0.349225
0.0271133
0.127827
0.508987
0.568731
0.204278
-0.0148517
0.258073
0.597358
0.470018
0.0740551
0.0308368
0.409747
0.617215
0.327941
-0.00344451
0.144059
0.539416
0.562346
0.177482
-0.0103145
0.294001
0.612722
0.446009
0.0565485
0.056345
0.445673
0.613442
0.29723
-0.00529076
0.181209
0.563495
0.541311
0.150403
0.00527905
0.333008
0.618002
0.414088
0.0441659
0.0889272
0.474731
0.595907
0.269698
0.0154802
0.226539
0.557933
0.49526
0.170311
0.107116
0.35938
0.485721
0.325895
0.198039
0.276264
0.364402
0.357434
0.357688
0.312253
0.119315
0.0187694
0.242003
0.490463
0.446496
0.381231
0.523795
0.469564
0.00682704
-0.254127
0.106422
0.532357
0.500147
0.382276
0.530202
0.499797
0.0174731
-0.27921
0.0794538
0.531244
0.512378
0.384606
0.527829
0.511584
0.0343069
-0.284285
0.0570012
0.522557
0.520692
0.384841
0.520724
0.522452
0.0567841
-0.284339
0.034478
0.511668
0.527718
0.384597
0.512456
0.530956
0.0788602
-0.279346
0.0179717
0.499695
0.528534
0.380435
0.499618
0.530754
0.100856
-0.259279
0.00921085
0.473964
0.515896
0.360633
0.42804
0.482066
0.229985
-0.0109666
0.0992278
0.338246
0.401862
0.217826
0.439512
0.440517
0.363697
0.392444
0.465052
0.480567
0.465805
0.476047
0.503798
0.518128
0.512328
0.500884
0.502868
0.519932
0.529812
0.518272
0.504002
0.510758
0.529094
0.530735
0.513212
0.504199
0.518422
0.534174
0.526616
0.506996
0.506018
0.525791
0.535582
0.519542
0.502332
0.511227
0.53287
0.533186
0.510939
0.500761
0.51913
0.537641
0.526954
0.503243
0.503408
0.527346
0.537834
0.518297
0.498724
0.5094
0.533802
0.533566
0.507919
0.495222
0.513476
0.53304
0.521613
0.489666
0.473871
0.488321
0.499446
0.460902
0.389534
0.369236
0.416483
0.408834
0.286977
0.216728
0.318658
0.403211
0.319256
0.295967
0.463523
0.452013
0.0783188
-0.131129
0.185867
0.525582
0.435951
0.306925
0.477464
0.493632
0.067095
-0.196386
0.143104
0.530493
0.448897
0.302835
0.473897
0.508253
0.0847468
-0.199482
0.126419
0.525871
0.456029
0.300246
0.46527
0.51764
0.105245
-0.20026
0.105368
0.517704
0.465242
0.300285
0.456139
0.525848
0.126297
-0.1994
0.0850231
0.508349
0.473754
0.30295
0.44957
0.530842
0.142066
-0.197605
0.067444
0.493206
0.47259
0.300973
0.435787
0.525515
0.172793
-0.149101
0.0753946
0.451876
0.432141
0.238385
0.284361
0.404687
0.307139
0.216196
0.466843
0.324709
0.0575434
0.144397
0.464201
0.496436
0.159364
-0.0362461
0.231868
0.570496
0.452021
0.0461374
-0.0162833
0.371892
0.60724
0.317286
-0.0453607
0.0905165
0.51352
0.558879
0.153918
-0.0660656
0.244566
0.598063
0.438561
0.0152982
-0.00781994
0.405571
0.606429
0.278716
-0.0639922
0.115992
0.536161
0.536461
0.115456
-0.066628
0.27588
0.605012
0.403499
-0.0127013
0.00964912
0.435234
0.595798
0.239709
-0.0733708
0.147649
0.554313
0.508076
0.0840406
-0.0517235
0.307785
0.593927
0.366073
-0.00953968
0.0412431
0.412516
0.52658
0.239883
0.0137293
0.1707
0.434721
0.391224
0.114127
0.0375306
0.283696
0.48287
0.415951
0.377848
0.521812
0.434568
-0.0533189
-0.322149
0.0541691
0.535355
0.575327
0.489937
0.598978
0.483605
-0.0707471
-0.382912
0.0172956
0.539574
0.588051
0.49144
0.602276
0.50115
-0.0544974
-0.390359
-0.00517772
0.530234
0.594021
0.491801
0.599209
0.516279
-0.0305595
-0.391633
-0.0304381
0.516379
0.599248
0.491855
0.594079
0.530198
-0.00527135
-0.390374
-0.0544134
0.501247
0.60226
0.49129
0.588163
0.540125
0.0176362
-0.382768
-0.0697944
0.484661
0.598158
0.488642
0.577353
0.53741
0.049626
-0.322164
-0.0353639
0.442526
0.484475
0.325298
0.39978
0.476758
0.227977
0.311163
0.459631
0.172838
-0.17812
-0.0377854
0.387649
0.408391
-0.0712507
-0.353502
0.00593419
0.471335
0.310532
-0.250949
-0.342658
0.188818
0.513425
0.114545
-0.386133
-0.200264
0.38211
0.444923
-0.112094
-0.414145
0.0136223
0.499597
0.280585
-0.299696
-0.330333
0.236843
0.51172
0.0629073
-0.405264
-0.158058
0.416596
0.416838
-0.157669
-0.405139
0.0628578
0.511596
0.236677
-0.32994
-0.298357
0.281627
0.498978
0.0129486
-0.411806
-0.108061
0.445363
0.379495
-0.197096
-0.375481
0.118864
0.506412
0.194622
-0.306943
-0.220307
0.295977
0.457638
0.0879237
-0.187242
0.0403432
0.394736
0.369696
0.0889321
0.0582962
0.351362
0.485118
0.237663
0.0677723
0.293689
0.483692
0.283542
0.120131
0.344809
0.493928
0.208864
0.00205639
0.275416
0.518219
0.30536
0.117513
0.351555
0.512831
0.215212
-0.0109217
0.262449
0.521341
0.314058
0.112706
0.340457
0.517876
0.230866
-0.0114769
0.247747
0.520566
0.327103
0.112025
0.327134
0.520564
0.247706
-0.0115072
0.230855
0.517876
0.340459
0.112636
0.313952
0.521436
0.262592
-0.0113751
0.21435
0.512698
0.35218
0.117807
0.305432
0.519131
0.276834
0.00246196
0.208361
0.493066
0.343422
0.126089
0.302445
0.489055
0.263178
0.0408444
0.246926
0.472656
0.265554
0.404365
0.500038
0.244825
0.00548457
0.163673
0.492739
0.507238
0.185001
0.00699633
0.257348
0.574749
0.469102
0.0886782
0.0248037
0.388675
0.613423
0.339332
-0.00721074
0.120675
0.523955
0.567878
0.182685
-0.0257731
0.270464
0.60627
0.455014
0.0551838
0.0348735
0.425921
0.614894
0.306033
-0.0152902
0.155307
0.550149
0.550159
0.156253
-0.0127465
0.308485
0.615821
0.427356
0.039728
0.0619942
0.459039
0.606887
0.273524
-0.0162236
0.193179
0.571038
0.523377
0.129593
0.0119893
0.350559
0.609602
0.394575
0.0593376
0.121599
0.463923
0.566258
0.31427
0.11123
0.232538
0.46182
0.462157
0.276058
0.245661
0.437101
0.444427
0.0719112
-0.179445
0.106749
0.518832
0.569337
0.506057
0.602275
0.466888
-0.0901312
-0.395398
0.0119451
0.543637
0.60632
0.519839
0.621024
0.491738
-0.0846915
-0.415169
-0.0111422
0.537462
0.61102
0.518566
0.619623
0.50806
-0.0623552
-0.417952
-0.0361929
0.523805
0.615588
0.518362
0.615573
0.523761
-0.0362546
-0.41802
-0.0624164
0.508072
0.619691
0.518492
0.610857
0.537698
-0.0105755
-0.415331
-0.0857954
0.491223
0.621683
0.520048
0.605643
0.54428
0.014247
-0.395598
-0.094855
0.462552
0.602054
0.510672
0.580112
0.524972
0.100261
-0.174344
0.0940897
0.427939
0.355159
0.361862
0.452589
0.370097
0.354084
0.444405
0.475659
0.446239
0.469082
0.521636
0.520867
0.491049
0.497163
0.526129
0.530545
0.512876
0.50676
0.519124
0.528856
0.523254
0.51259
0.51273
0.523392
0.528743
0.520191
0.510325
0.514864
0.527536
0.528422
0.515362
0.508633
0.519371
0.531112
0.525027
0.510091
0.509868
0.525307
0.532297
0.519338
0.50641
0.514017
0.530538
0.530086
0.513143
0.505816
0.519314
0.532982
0.525628
0.507146
0.504919
0.524115
0.536435
0.518687
0.493646
0.503423
0.536602
0.53256
0.487879
0.477008
0.510936
0.497978
0.430509
0.422504
0.461135
0.407974
0.322929
0.37224
0.402898
0.201576
0.0504464
0.255411
0.472818
0.345481
0.223444
0.4179
0.494466
0.148096
-0.0763701
0.224272
0.520243
0.35832
0.191414
0.4028
0.510031
0.159989
-0.085384
0.21215
0.524138
0.368939
0.188603
0.39321
0.516283
0.175679
-0.0880624
0.194208
0.520971
0.381075
0.18812
0.38108
0.520987
0.194236
-0.0880561
0.175652
0.516313
0.393297
0.188514
0.368707
0.524333
0.212879
-0.0850858
0.159458
0.509987
0.403857
0.191874
0.357695
0.52124
0.227588
-0.0753759
0.144958
0.494324
0.42389
0.22856
0.350017
0.483713
0.27308
0.0756566
0.228061
0.409488
0.352326
0.241575
0.236102
0.277683
0.446744
0.42632
0.11396
-0.00696331
0.321968
0.58964
0.341192
-0.0341624
0.073056
0.498132
0.567663
0.174303
-0.0591941
0.234961
0.59486
0.456653
0.0377683
-0.00470813
0.396091
0.611339
0.302346
-0.0470137
0.111428
0.529167
0.550008
0.140219
-0.0576321
0.266978
0.604531
0.424646
0.00878313
0.00917241
0.425175
0.603583
0.263641
-0.0616598
0.138117
0.549183
0.525932
0.104755
-0.0532409
0.299586
0.609117
0.389562
-0.0149309
0.0293073
0.452185
0.589792
0.225154
-0.0703925
0.16599
0.558311
0.486823
0.0755913
-0.0160538
0.332432