# vtk DataFile Version 3.0
PFC-RG simulation results
ASCII
DATASET STRUCTURED_POINTS
DIMENSIONS 128 128 1
ORIGIN 0 0 0
SPACING 1 1 1
POINT_DATA 16384
SCALARS psi double
lOOKUP_TABLE default
0.284715
0.285019
0.285272
0.28507
0.284703
0.284729
0.285135
0.28534
0.285054
0.284735
0.28494
0.285491
0.285632
0.285005
0.284119
0.283722
0.283945
0.284304
0.284417
0.284427
0.284708
0.285404
0.286393
0.287472
0.288405
0.288971
0.289203
0.289501
0.290246
0.291302
0.29217
0.29263
0.292921
0.29318
0.293057
0.292201
0.290927
0.289971
0.289576
0.289217
0.288389
0.287335
0.286683
0.286512
0.286157
0.28505
0.28352
0.282534
0.282695
0.283632
0.284448
0.284699
0.28481
0.285485
0.286801
0.2881
0.288775
0.288958
0.289246
0.289901
0.290629
0.291116
0.291462
0.29191
0.292385
0.292569
0.2923
0.291647
0.290681
0.289483
0.288425
0.288066
0.28848
0.288844
0.288043
0.285789
0.283093
0.281537
0.282077
0.284348
0.2869
0.288082
0.287056
0.284401
0.281852
0.281155
0.282782
0.285602
0.287857
0.28853
0.287805
0.286407
0.284828
0.283292
0.282087
0.281529
0.28162
0.28206
0.2827
0.283751
0.285386
0.287269
0.288641
0.288818
0.287578
0.285274
0.282818
0.281447
0.282064
0.284486
0.287337
0.288862
0.288094
0.285529
0.282833
0.281736
0.282798
0.284997
0.286617
0.286704
0.285682
0.28464
0.284237
0.284414
0.284849
0.285278
0.285452
0.285208
0.285239
0.285293
0.284918
0.284507
0.284675
0.285304
0.285587
0.285144
0.284591
0.284695
0.285275
0.285423
0.284729
0.283881
0.283857
0.284788
0.285887
0.286406
0.286434
0.286632
0.28736
0.288256
0.288705
0.288525
0.288061
0.287714
0.28761
0.287734
0.288107
0.288636
0.288986
0.288878
0.288478
0.288239
0.288297
0.288299
0.287935
0.28743
0.287265
0.287505
0.287708
0.287556
0.287311
0.287462
0.287994
0.288239
0.287551
0.286062
0.28463
0.283988
0.284003
0.283909
0.283267
0.282501
0.28234
0.282883
0.283487
0.283596
0.283337
0.283148
0.283082
0.282847
0.28243
0.282239
0.282515
0.282907
0.282891
0.282445
0.282103
0.282382
0.283288
0.284282
0.284584
0.283681
0.281881
0.280443
0.280809
0.28334
0.286738
0.288849
0.28827
0.285394
0.282151
0.280721
0.282121
0.285543
0.288904
0.290275
0.289159
0.286616
0.284235
0.283004
0.283029
0.283968
0.285382
0.286714
0.287323
0.286838
0.285482
0.283954
0.283009
0.283174
0.284638
0.287048
0.289359
0.29019
0.288712
0.285417
0.282007
0.280442
0.281707
0.285073
0.288404
0.289543
0.287885
0.284806
0.282485
0.282208
0.283651
0.285498
0.286511
0.286244
0.285171
0.284285
0.284278
0.284917
0.285369
0.285215
0.285591
0.28536
0.284587
0.284389
0.285122
0.285764
0.285364
0.284462
0.284312
0.285055
0.285525
0.284977
0.284198
0.284441
0.285746
0.286896
0.286909
0.286054
0.285288
0.285074
0.284986
0.284316
0.282838
0.281008
0.279536
0.278762
0.278403
0.277914
0.27703
0.275915
0.274832
0.273883
0.273153
0.272921
0.273453
0.274608
0.275874
0.276888
0.277772
0.278841
0.28009
0.281162
0.281841
0.28243
0.283471
0.285077
0.286622
0.287263
0.28682
0.28603
0.285741
0.285924
0.28574
0.284675
0.283308
0.282616
0.282739
0.282877
0.282416
0.281676
0.281265
0.28117
0.280914
0.280414
0.280095
0.280179
0.280383
0.280537
0.281021
0.282175
0.283505
0.283957
0.283105
0.281838
0.28174
0.283712
0.287039
0.289686
0.289685
0.286691
0.282477
0.279821
0.280561
0.284268
0.288545
0.290666
0.289361
0.285526
0.281464
0.279291
0.279702
0.281966
0.284816
0.287311
0.289046
0.289948
0.290084
0.289579
0.288474
0.286639
0.284021
0.281113
0.279059
0.279073
0.281552
0.285596
0.289269
0.290536
0.288492
0.284184
0.280231
0.279158
0.28159
0.285804
0.289027
0.289386
0.287067
0.283999
0.28237
0.282994
0.284811
0.286049
0.285956
0.285231
0.284823
0.284814
0.284775
0.28472
0.28531
0.284948
0.284604
0.285031
0.285659
0.28538
0.284388
0.284084
0.284987
0.285852
0.285469
0.284497
0.284558
0.285854
0.286755
0.28592
0.283971
0.282579
0.282419
0.28265
0.282231
0.281159
0.280261
0.280195
0.280915
0.281886
0.282534
0.282539
0.281981
0.281294
0.280933
0.281004
0.281249
0.281432
0.281605
0.281932
0.282347
0.282572
0.282459
0.282201
0.282096
0.282153
0.282046
0.281535
0.280941
0.281023
0.282209
0.283945
0.285106
0.285234
0.285107
0.285732
0.28692
0.287469
0.286816
0.285877
0.2858
0.28642
0.286691
0.286346
0.286228
0.286852
0.287544
0.287451
0.286786
0.286441
0.286744
0.28724
0.28747
0.287329
0.286731
0.285626
0.284599
0.284827
0.286851
0.289446
0.290243
0.287797
0.283136
0.279263
0.278954
0.282647
0.288015
0.291526
0.290846
0.286371
0.280858
0.27751
0.277939
0.281388
0.285577
0.288318
0.288653
0.28696
0.284354
0.282074
0.281123
0.281978
0.28433
0.28706
0.288687
0.288104
0.285201
0.281103
0.277871
0.277566
0.280908
0.286421
0.291
0.291844
0.288411
0.282901
0.278855
0.278778
0.282398
0.286897
0.289146
0.288154
0.285524
0.283572
0.28327
0.284054
0.28504
0.285745
0.285864
0.285264
0.28445
0.284329
0.284663
0.284311
0.284949
0.285864
0.28563
0.284331
0.283764
0.284898
0.286281
0.286013
0.284527
0.284002
0.28517
0.286167
0.285138
0.282866
0.281793
0.282956
0.284951
0.285982
0.285999
0.286403
0.288167
0.290828
0.293214
0.294656
0.295375
0.295985
0.296911
0.298229
0.29978
0.301246
0.30219
0.302244
0.301389
0.299988
0.298479
0.297035
0.295552
0.293929
0.292308
0.290984
0.289999
0.288901
0.287137
0.284875
0.283185
0.282984
0.283806
0.284215
0.28364
0.283195
0.284111
0.285874
0.286817
0.286405
0.285842
0.286208
0.287007
0.287224
0.286986
0.287194
0.287936
0.288331
0.28797
0.28756
0.287789
0.288239
0.287938
0.286646
0.285185
0.284647
0.28552
0.287289
0.288483
0.287453
0.283851
0.279613
0.277997
0.280939
0.287073
0.292402
0.2932
0.288789
0.282015
0.277228
0.277368
0.282193
0.288721
0.293353
0.294057
0.291169
0.286579
0.282246
0.279221
0.277634
0.277242
0.277924
0.279815
0.283094
0.287519
0.291984
0.294594
0.293604
0.28881
0.282259
0.277448
0.277269
0.282023
0.288894
0.293529
0.292934
0.287685
0.281549
0.278562
0.28002
0.283985
0.287371
0.288303
0.286904
0.284675
0.283347
0.283718
0.285045
0.28581
0.285415
0.284752
0.284803
0.284269
0.284156
0.285417
0.286019
0.284852
0.283682
0.284532
0.286376
0.28647
0.284512
0.283229
0.284354
0.286019
0.285533
0.283421
0.282821
0.28519
0.288416
0.289694
0.288914
0.28825
0.28913
0.290733
0.291351
0.290354
0.288561
0.287226
0.287017
0.287746
0.288735
0.289384
0.289499
0.289203
0.288667
0.287994
0.287312
0.286838
0.286774
0.287125
0.287624
0.287938
0.288086
0.288534
0.289542
0.290393
0.289868
0.287846
0.285892
0.2855
0.286062
0.285637
0.283767
0.282331
0.282934
0.284582
0.28508
0.284094
0.283353
0.283884
0.284598
0.284172
0.283081
0.282738
0.283371
0.283931
0.283809
0.283494
0.283432
0.283315
0.282941
0.282996
0.284221
0.286024
0.286609
0.284705
0.281164
0.278755
0.280151
0.285552
0.291869
0.294591
0.291201
0.28346
0.276431
0.274887
0.279927
0.288349
0.295025
0.296314
0.292122
0.285464
0.280229
0.278863
0.281359
0.285817
0.289765
0.291311
0.289745
0.285744
0.281265
0.278866
0.280404
0.285726
0.292312
0.296376
0.295029
0.288347
0.279865
0.274699
0.276144
0.283166
0.290994
0.294576
0.292136
0.286055
0.280731
0.279366
0.281952
0.285705
0.287589
0.286857
0.285185
0.284361
0.284445
0.284555
0.284621
0.285181
0.285851
0.284407
0.284935
0.285806
0.285213
0.283878
0.284227
0.286201
0.286773
0.284612
0.282598
0.283717
0.286433
0.28685
0.284592
0.283466
0.285853
0.28912
0.289157
0.285771
0.282503
0.281745
0.28209
0.280784
0.277231
0.273195
0.270479
0.269359
0.268971
0.268347
0.266986
0.264967
0.262868
0.261437
0.261145
0.261973
0.263542
0.265416
0.267372
0.269511
0.271955
0.274366
0.276116
0.277262
0.278951
0.282031
0.285396
0.286847
0.286009
0.285175
0.286256
0.287931
0.287465
0.28484
0.283017
0.283742
0.28517
0.284863
0.283416
0.283165
0.284316
0.284721
0.283437
0.282206
0.282673
0.28394
0.28413
0.283132
0.282436
0.282927
0.284147
0.285357
0.286099
0.285773
0.283926
0.281504
0.280981
0.28422
0.290013
0.294174
0.292684
0.285307
0.276437
0.272204
0.275932
0.285512
0.294751
0.29768
0.292545
0.282649
0.273777
0.270421
0.273469
0.28052
0.288028
0.293488
0.296288
0.296987
0.295967
0.292826
0.287101
0.279542
0.272672
0.269904
0.273484
0.28248
0.292444
0.297625
0.294726
0.285484
0.275834
0.271947
0.276008
0.284827
0.292269
0.293785
0.289589
0.283885
0.280905
0.281589
0.283956
0.285888
0.286685
0.286379
0.285124
0.2838
0.283822
0.285267
0.28623
0.284939
0.286196
0.285786
0.283955
0.283577
0.285678
0.287134
0.285212
0.282355
0.283022
0.286726
0.288293
0.28556
0.282773
0.284202
0.287547
0.287139
0.282105
0.277594
0.277709
0.280525
0.281484
0.279465
0.277407
0.277993
0.280778
0.283508
0.28468
0.284308
0.283149
0.281975
0.281323
0.281393
0.282031
0.282928
0.28381
0.284376
0.28426
0.283435
0.282568
0.282333
0.282211
0.280905
0.278561
0.277544
0.279584
0.282851
0.283885
0.282454
0.282099
0.284894
0.288065
0.287892
0.285195
0.283992
0.285503
0.28682
0.285879
0.284515
0.285078
0.286669
0.286938
0.285904
0.28551
0.286245
0.286623
0.285904
0.285287
0.285918
0.287127
0.287321
0.28587
0.283661
0.282398
0.283587
0.287353
0.291514
0.292309
0.287348
0.278589
0.271973
0.273116
0.282477
0.294344
0.300735
0.29715
0.285747
0.273694
0.268181
0.27182
0.281515
0.291069
0.295229
0.292416
0.284991
0.277594
0.274586
0.27771
0.285152
0.292533
0.295242
0.290976
0.281372
0.271703
0.268125
0.27368
0.285755
0.297218
0.300919
0.29461
0.282707
0.273246
0.272024
0.278529
0.287082
0.291882
0.291127
0.287026
0.283063
0.281601
0.282936
0.285407
0.286674
0.285897
0.284569
0.284478
0.285261
0.285242
0.285666
0.286766
0.284951
0.283142
0.284517
0.287015
0.28624
0.282871
0.282351
0.286304
0.289171
0.286345
0.281589
0.28168
0.286021
0.28736
0.282829
0.278561
0.281016
0.288074
0.292575
0.292193
0.291514
0.294892
0.301148
0.306242
0.308382
0.308875
0.309591
0.311271
0.31369
0.316178
0.31789
0.318155
0.316861
0.314583
0.312155
0.309783
0.30679
0.302951
0.299627
0.298133
0.297076
0.293553
0.287763
0.283917
0.284613
0.286557
0.285007
0.281007
0.280104
0.283923
0.287527
0.286734
0.284002
0.284027
0.286505
0.28731
0.285324
0.283835
0.285094
0.287153
0.287282
0.285816
0.284962
0.285473
0.286269
0.286491
0.286312
0.28588
0.28484
0.283377
0.28288
0.284693
0.288144
0.290311
0.288205
0.28169
0.274665
0.272964
0.279821
0.292275
0.302214
0.302131
0.291155
0.276211
0.267215
0.270105
0.283006
0.298019
0.306787
0.305549
0.296336
0.284235
0.273728
0.267084
0.264974
0.267485
0.274479
0.285208
0.297327
0.306363
0.307336
0.298352
0.283216
0.270231
0.267265
0.276235
0.291217
0.302245
0.302384
0.292552
0.280208
0.273332
0.274916
0.28195
0.288606
0.290669
0.288191
0.284594
0.283006
0.283541
0.284441
0.28498
0.285702
0.286289
0.285485
0.283714
0.286337
0.285789
0.283455
0.283575
0.286473
0.287217
0.283895
0.281785
0.285152
0.289385
0.287357
0.281063
0.279577
0.285288
0.289797
0.286636
0.281491
0.283872
0.292732
0.297782
0.294158
0.288497
0.288603
0.293004
0.294598
0.290829
0.285681
0.283346
0.284111
0.286202
0.288264
0.289434
0.289179
0.287734
0.285698
0.283534
0.282212
0.283006
0.285325
0.286505
0.285725
0.286173
0.290301
0.294651
0.293737
0.288573
0.286152
0.289147
0.29153
0.287734
0.281537
0.280551
0.28483
0.287307
0.284839
0.282243
0.283852
0.286834
0.286341
0.283253
0.282296
0.284494
0.286089
0.284728
0.282758
0.283164
0.285177
0.285892
0.284516
0.282887
0.282663
0.283912
0.286008
0.288021
0.288168
0.284819
0.279053
0.275354
0.278417
0.288496
0.299689
0.30341
0.295083
0.27871
0.264957
0.263655
0.276445
0.295341
0.308354
0.307788
0.295077
0.279202
0.270338
0.273123
0.28419
0.295525
0.300109
0.295372
0.283981
0.272978
0.270308
0.279254
0.295157
0.307864
0.308407
0.295352
0.27641
0.263581
0.264822
0.278489
0.294846
0.303282
0.299682
0.288501
0.278433
0.275538
0.279389
0.285042
0.288239
0.288319
0.286682
0.284462
0.282779
0.283214
0.285664
0.287144
0.285495
0.283149
0.286384
0.283694
0.282504
0.285456
0.288164
0.285669
0.281553
0.283095
0.288669
0.288944
0.282058
0.278203
0.284275
0.292182
0.290528
0.282391
0.280958
0.288986
0.293845
0.286111
0.273433
0.269112
0.273319
0.274426
0.266324
0.255568
0.250586
0.25127
0.25228
0.251168
0.248964
0.246227
0.243058
0.241209
0.242162
0.244347
0.245832
0.248396
0.254638
0.261931
0.264693
0.263493
0.265929
0.275284
0.284028
0.284199
0.279832
0.28126
0.289118
0.293155
0.288081
0.281592
0.282299
0.287137
0.287535
0.283152
0.281322
0.284708
0.287664
0.285889
0.282714
0.282844
0.285111
0.285547
0.284116
0.28383
0.285095
0.28537
0.283904
0.283075
0.28461
0.287178
0.288249
0.286559
0.282708
0.279058
0.279103
0.284995
0.294431
0.300597
0.296726
0.282364
0.265745
0.258846
0.268161
0.288922
0.30778
0.311978
0.298248
0.274841
0.255435
0.250352
0.261338
0.28179
0.301609
0.313922
0.317627
0.313466
0.300801
0.280818
0.260408
0.249601
0.254908
0.27451
0.298043
0.311842
0.307709
0.288907
0.268128
0.258731
0.265582
0.282197
0.296505
0.300285
0.294147
0.284838
0.278905
0.278635
0.282307
0.286546
0.288386
0.286909
0.284178
0.283367
0.284842
0.285731
0.284654
0.28412
0.285217
0.282099
0.283568
0.287861
0.287762
0.282677
0.281046
0.286513
0.290251
0.284813
0.278066
0.282026
0.292452
0.293474
0.282425
0.275269
0.282093
0.290673
0.28489
0.270001
0.265444
0.276309
0.286878
0.284368
0.275882
0.27552
0.284391
0.292084
0.292515
0.289381
0.287518
0.286513
0.284623
0.283758
0.286633
0.291
0.291322
0.28703
0.2846
0.287829
0.290185
0.283743
0.273267
0.27159
0.280229
0.285721
0.279842
0.27268
0.277029
0.288317
0.291795
0.285104
0.28049
0.284763
0.289838
0.287278
0.281553
0.28162
0.28667
0.288767
0.285716
0.28299
0.28416
0.286554
0.286883
0.285649
0.284709
0.284455
0.284737
0.285794
0.287116
0.287161
0.285026
0.281764
0.280066
0.282569
0.289226
0.29573
0.295776
0.286283
0.271226
0.260638
0.264256
0.283101
0.306309
0.317993
0.309135
0.284563
0.26002
0.251313
0.262942
0.285605
0.304111
0.307028
0.292688
0.271846
0.262006
0.272022
0.292927
0.307218
0.304221
0.285659
0.262959
0.2513
0.259999
0.284572
0.309196
0.318102
0.306447
0.283271
0.264468
0.26082
0.271272
0.286241
0.295813
0.295821
0.289132
0.282295
0.279983
0.281948
0.284925
0.286523
0.286659
0.286036
0.284779
0.283336
0.283434
0.285829
0.283124
0.282546
0.286659
0.288858
0.284482
0.280079
0.283743
0.290371
0.288311
0.279599
0.279103
0.289946
0.29536
0.284414
0.271773
0.276646
0.29194
0.294144
0.280584
0.274967
0.291071
0.31135
0.313847
0.304538
0.305671
0.321597
0.335534
0.336768
0.332754
0.3333
0.337989
0.342101
0.343724
0.342803
0.340792
0.340466
0.340244
0.333706
0.321413
0.314662
0.318138
0.318994
0.305962
0.289739
0.288047
0.297035
0.296524
0.282114
0.272291
0.279162
0.290245
0.289263
0.280701
0.279863
0.287708
0.291287
0.285639
0.28031
0.282829
0.288027
0.288096
0.28428
0.28292
0.285342
0.287283
0.285991
0.283582
0.283473
0.285831
0.287558
0.286268
0.283117
0.2811
0.281936
0.285556
0.290553
0.293286
0.289165
0.277992
0.266892
0.265654
0.278836
0.301085
0.31844
0.316979
0.294746
0.265356
0.24849
0.256471
0.286192
0.319953
0.33762
0.331395
0.306318
0.271081
0.237868
0.223909
0.238422
0.271974
0.307295
0.3323
0.338368
0.32049
0.286526
0.256676
0.248642
0.265464
0.294787
0.316991
0.31852
0.301264
0.279016
0.26576
0.267031
0.278276
0.289449
0.293397
0.29069
0.286001
0.282407
0.281076
0.282881
0.286629
0.288259
0.285613
0.282349
0.283323
0.28707
0.281598
0.285106
0.289617
0.286897
0.280061
0.280603
0.289058
0.291723
0.28284
0.276613
0.285085
0.295691
0.28912
0.272682
0.272596
0.292263
0.303748
0.29085
0.276513
0.287562
0.310586
0.310939
0.287071
0.273657
0.287497
0.302515
0.292965
0.272964
0.269814
0.280959
0.286076
0.284096
0.286727
0.289036
0.279395
0.268062
0.272836
0.284804
0.281632
0.268567
0.271885
0.293044
0.303473
0.290786
0.278919
0.28874
0.304606
0.30063
0.282005
0.275141
0.285865
0.293478
0.285917
0.276791
0.280608
0.290286
0.290985
0.283357
0.279706
0.283997
0.288212
0.286577
0.283068
0.283186
0.285593
0.285774
0.28389
0.283938
0.286361
0.286826
0.283572
0.280983
0.283179
0.288177
0.291204
0.289778
0.283613
0.274728
0.269763
0.276295
0.293793
0.311478
0.315893
0.29997
0.269735
0.244641
0.244273
0.270811
0.307571
0.331695
0.326807
0.295967
0.265908
0.262232
0.280196
0.296976
0.302329
0.296912
0.280052
0.262048
0.265781
0.295931
0.326796
0.331668
0.307566
0.270835
0.24426
0.24454
0.269575
0.299822
0.315773
0.311343
0.293659
0.276257
0.2698
0.274657
0.283432
0.289773
0.29141
0.28815
0.282783
0.280911
0.284213
0.287251
0.285769
0.283486
0.285021
0.287222
0.282239
0.288105
0.289679
0.282598
0.278123
0.285371
0.293526
0.287871
0.276254
0.278802
0.293238
0.295026
0.278113
0.269567
0.287389
0.307057
0.296707
0.269678
0.266877
0.290995
0.298019
0.265355
0.230883
0.23736
0.265661
0.26261
0.223113
0.198448
0.216298
0.239559
0.229526
0.207317
0.211397
0.228364
0.219481
0.194082
0.197227
0.231892
0.251149
0.234191
0.219169
0.240819
0.275764
0.281044
0.26104
0.257404
0.282403
0.302564
0.293684
0.276084
0.27826
0.293179
0.29489
0.281403
0.274431
0.283117
0.292409
0.289226
0.280824
0.280104
0.286064
0.288593
0.285126
0.282312
0.283852
0.286032
0.285787
0.285135
0.285432
0.284527
0.282613
0.283834
0.288564
0.290874
0.28697
0.280006
0.275144
0.276316
0.286372
0.301965
0.310484
0.300845
0.27553
0.248461
0.237094
0.254563
0.295683
0.33289
0.339584
0.311371
0.259922
0.208984
0.196682
0.24268
0.313727
0.360881
0.373843
0.360354
0.312857
0.241755
0.195929
0.208448
0.259512
0.311044
0.339383
0.332813
0.295655
0.254546
0.237095
0.248444
0.275434
0.300693
0.310377
0.301925
0.286259
0.276032
0.274873
0.279943
0.286879
0.290404
0.28804
0.283915
0.282983
0.28412
0.284476
0.285299
0.287205
0.286329
0.285111
0.289293
0.286092
0.278954
0.281191
0.291761
0.292666
0.279562
0.273615
0.287217
0.299034
0.287115
0.269346
0.27806
0.303528
0.30305
0.270217
0.251927
0.276482
0.304683
0.288654
0.249699
0.248877
0.29292
0.32261
0.301056
0.266297
0.272939
0.313599
0.332562
0.306731
0.276571
0.284729
0.313957
0.316375
0.287768
0.273356
0.297896
0.326131
0.313322
0.272835
0.25881
0.285631
0.306193
0.285171
0.253352
0.257596
0.288527
0.299872
0.28172
0.269465
0.28302
0.29892
0.292829
0.276692
0.275218
0.287388
0.293007
0.285913
0.279578
0.282844
0.288245
0.28728
0.283294
0.283121
0.285867
0.28678
0.285331
0.283727
0.283025
0.284335
0.287914
0.28949
0.284793
0.277835
0.276702
0.28301
0.292782
0.301566
0.301386
0.28421
0.257457
0.242819
0.253365
0.284618
0.323183
0.346187
0.329891
0.283138
0.246039
0.237811
0.246986
0.273034
0.3128
0.324392
0.2872
0.259038
0.287206
0.324459
0.312983
0.273327
0.24727
0.23794
0.246031
0.283147
0.329956
0.346252
0.323291
0.284835
0.253589
0.242923
0.257521
0.284372
0.301567
0.301596
0.292736
0.283157
0.277017
0.27793
0.284611
0.289595
0.288504
0.284566
0.282356
0.283289
0.286241
0.287667
0.284715
0.288347
0.287543
0.281121
0.279154
0.28794
0.294616
0.285215
0.272408
0.279378
0.298127
0.296854
0.274298
0.268359
0.293422
0.308961
0.282968
0.25193
0.269256
0.316007
0.324809
0.289186
0.278719
0.325872
0.37015
0.357527
0.328113
0.343757
0.385694
0.396323
0.37712
0.370565
0.380397
0.380916
0.376991
0.388272
0.396587
0.374588
0.347207
0.354901
0.374544
0.35359
0.307056
0.297766
0.327973
0.334162
0.29422
0.261988
0.276522
0.303237
0.29652
0.270583
0.268044
0.290176
0.301254
0.287785
0.274031
0.279119
0.29092
0.29119
0.283164
0.28071
0.28524
0.287813
0.28564
0.283766
0.28466
0.285757
0.285157
0.283804
0.283819
0.286392
0.288607
0.285121
0.277893
0.277461
0.287331
0.296867
0.296843
0.288554
0.273571
0.255399
0.252173
0.278988
0.318999
0.341496
0.336049
0.30228
0.243981
0.202761
0.233069
0.315389
0.376397
0.395828
0.385958
0.311103
0.172845
0.0967476
0.173353
0.311945
0.386857
0.396608
0.377002
0.315774
0.233294
0.20299
0.244189
0.302323
0.336025
0.341592
0.319124
0.278995
0.252199
0.255576
0.273723
0.288545
0.296899
0.297181
0.287645
0.277473
0.277906
0.285606
0.289188
0.286248
0.283293
0.284218
0.286334
0.285638
0.282903
0.289612
0.283742
0.278338
0.283767
0.293675
0.290576
0.27556
0.273212
0.292042
0.303009
0.284104
0.263595
0.278752
0.308436
0.30044
0.262094
0.259401
0.308775
0.33762
0.297075
0.252126
0.283513
0.343849
0.321191
0.233738
0.221291
0.310676
0.350317
0.261167
0.185129
0.25045
0.347125
0.312638
0.210605
0.216189
0.312107
0.32657
0.235256
0.193977
0.265056
0.325755
0.290048
0.239449
0.265794
0.323914
0.324405
0.278948
0.264571
0.295112
0.312509
0.288596
0.263166
0.272717
0.296945
0.299055
0.281726
0.273928
0.283602
0.292338
0.288537
0.281314
0.281453
0.286362
0.288103
0.285413
0.282974
0.283854
0.286055
0.286198
0.285097
0.285803
0.286143
0.281987
0.279084
0.286869
0.298008
0.294669
0.277974
0.266235
0.265755
0.273755
0.297717
0.331603
0.337266
0.297829
0.251469
0.227882
0.217585
0.236576
0.310372
0.375741
0.3527
0.300625
0.311994
0.321556
0.246908
0.188482
0.247068
0.321714
0.311945
0.300387
0.352472
0.375605
0.310348
0.236729
0.217773
0.227846
0.251287
0.297741
0.3372
0.331416
0.297572
0.273754
0.265675
0.266016
0.277892
0.294723
0.297809
0.286411
0.278909
0.282188
0.285984
0.285026
0.284742
0.286928
0.286514
0.282652
0.281704
0.288067
0.280189
0.279725
0.289969
0.294013
0.281536
0.270989
0.283499
0.302955
0.294961
0.266756
0.265071
0.298774
0.313771
0.279699
0.25097
0.283496
0.330982
0.305449
0.225523
0.207123
0.281253
0.319964
0.223712
0.105393
0.145775
0.292286
0.299808
0.120475
0.0194816
0.163559
0.330613
0.25409
0.0562559
0.0473618
0.223969
0.296292
0.169712
0.0698269
0.153918
0.284806
0.284198
0.198008
0.183389
0.261492
0.3172
0.291194
0.251091
0.266641
0.308346
0.311053
0.27722
0.261188
0.281017
0.300724
0.293349
0.276399
0.275973
0.288049
0.292175
0.284617
0.279327
0.283636
0.289059
0.286937
0.281728
0.282443
0.28749
0.288086
0.283976
0.282789
0.284678
0.284076
0.285005
0.292623
0.293975
0.277156
0.261722
0.272388
0.296715
0.311011
0.318354
0.31368
0.267496
0.20149
0.19579
0.261938
0.323837
0.358878
0.388766
0.341335
0.168858
0.0496294
0.162123
0.365978
0.437372
0.425103
0.437152
0.365554
0.161497
0.0489843
0.168464
0.341143
0.388607
0.358847
0.323947
0.261943
0.195697
0.201522
0.267567
0.31362
0.318306
0.31104
0.296616
0.272216
0.261745
0.277181
0.293634
0.292228
0.28507
0.284208
0.28416
0.282106
0.284235
0.288831
0.287051
0.281046
0.281876
0.285021
0.27902
0.284187
0.293636
0.288509
0.273622
0.275617
0.296864
0.302668
0.276708
0.258027
0.283136
0.316995
0.300661
0.254691
0.257679
0.313091
0.327598
0.260561
0.206
0.255508
0.348671
0.352352
0.258315
0.207645
0.294953
0.417122
0.398439
0.25387
0.198374
0.330785
0.461093
0.390188
0.223533
0.209107
0.35393
0.430916
0.337966
0.227896
0.252424
0.353324
0.376631
0.293117
0.21991
0.245146
0.312346
0.317997
0.264524
0.240868
0.27915
0.316403
0.301858
0.267366
0.265342
0.290499
0.300878
0.285925
0.273708
0.281082
0.291951
0.289068
0.280423
0.281239
0.288009
0.287687
0.28189
0.282433
0.288173
0.287385
0.28113
0.281378
0.287157
0.287793
0.285831
0.287658
0.282759
0.268302
0.271693
0.302972
0.320855
0.29925
0.271856
0.25651
0.225986
0.207475
0.271343
0.37076
0.384498
0.341114
0.343536
0.312467
0.150615
0.0484784
0.200438
0.405407
0.408237
0.348762
0.408168
0.405384
0.200497
0.0487003
0.151077
0.31287
0.343542
0.340969
0.384559
0.37088
0.271393
0.207647
0.226248
0.256671
0.271994
0.299406
0.320886
0.303017
0.271967
0.268521
0.282709
0.28783
0.286458
0.288124
0.28686
0.281477
0.282144
0.28792
0.287272
0.281869
0.283432
0.282778
0.280829
0.288564
0.292427
0.280977
0.272393
0.286656
0.303594
0.289631
0.260767
0.267598
0.308334
0.3171
0.270599
0.241941
0.287097
0.338402
0.30665
0.242882
0.268287
0.364925
0.396376
0.34206
0.329865
0.404503
0.454312
0.420098
0.392177
0.436119
0.48203
0.458617
0.414607
0.42714
0.470498
0.466417
0.421162
0.412997
0.448685
0.443403
0.37808
0.347642
0.387752
0.399273
0.328687
0.27105
0.301039
0.344636
0.313704
0.251153
0.247766
0.296355
0.317959
0.288825
0.262027
0.274638
0.298607
0.296589
0.278596
0.275638
0.28789
0.292152
0.284161
0.280557
0.285814
0.287655
0.283603
0.283894
0.287843
0.285112
0.279887
0.284347
0.2915
0.287098
0.279543
0.281712
0.282794
0.278659
0.292204
0.316096
0.298574
0.242515
0.226097
0.266889
0.296934
0.316076
0.374847
0.388061
0.249296
0.114984
0.200929
0.372664
0.386067
0.351582
0.437676
0.424468
0.142181
-0.054154
0.142305
0.424754
0.438082
0.352105
0.386716
0.373137
0.200905
0.114779
0.249383
0.388261
0.37486
0.31608
0.297036
0.266945
0.226132
0.242576
0.29858
0.316153
0.292397
0.278717
0.282718
0.281995
0.280056
0.287053
0.291136
0.284797
0.280789
0.284815
0.286714
0.284297
0.285383
0.282874
0.284434
0.290019
0.287311
0.276455
0.278586
0.29652
0.298575
0.272431
0.259643
0.291143
0.321551
0.292675
0.241102
0.255993
0.326169
0.336223
0.259145
0.23046
0.325364
0.389333
0.278575
0.154067
0.250618
0.432304
0.363015
0.103109
0.0751601
0.358793
0.508378
0.265613
0.001256
0.132755
0.451932
0.459005
0.158699
0.0304519
0.2477
0.431716
0.305584
0.117121
0.169983
0.341193
0.359205
0.252532
0.228457
0.310137
0.349059
0.292125
0.238965
0.262585
0.311349
0.310688
0.274018
0.263039
0.286919
0.301227
0.287434
0.274506
0.281837
0.291645
0.287948
0.281621
0.283596
0.28663
0.285345
0.285597
0.286842
0.282996
0.281153
0.289157
0.292836
0.280918
0.273748
0.286196
0.295087
0.288355
0.29136
0.297648
0.263295
0.2194
0.255908
0.344816
0.365244
0.332453
0.343102
0.310785
0.124323
-0.00333213
0.173875
0.442391
0.481468
0.433375
0.507564
0.444564
0.061529
-0.191747
0.0616282
0.444681
0.507581
0.433304
0.481455
0.442383
0.173686
-0.00346638
0.124577
0.311092
0.343044
0.332257
0.36515
0.3447
0.255751
0.219301
0.263233
0.297618
0.291295
0.288072
0.294765
0.286186
0.273663
0.280243
0.292288
0.289517
0.281315
0.281814
0.28593
0.286723
0.286355
0.285171
0.287809
0.287857
0.281559
0.277576
0.287907
0.298722
0.285258
0.263074
0.275036
0.312121
0.310168
0.257773
0.236467
0.294578
0.347433
0.296122
0.204586
0.227986
0.347615
0.340527
0.1314
0.000540214
0.183587
0.410716
0.256362
-0.122026
-0.139004
0.268616
0.463995
0.108799
-0.259915
-0.0633274
0.391242
0.395048
-0.040742
-0.228451
0.0939007
0.397344
0.25619
-0.0252016
0.0065427
0.258833
0.355493
0.239542
0.156947
0.230223
0.332822
0.330506
0.260452
0.238356
0.284465
0.317823
0.294341
0.263287
0.272639
0.296957
0.295216
0.278413
0.277184
0.28774
0.289547
0.283802
0.282529
0.284742
0.285513
0.28645
0.285893
0.28164
0.282683
0.291558
0.289881
0.274281
0.274934
0.298047
0.30203
0.277009
0.26984
0.284136
0.271671
0.261105
0.322118
0.376513
0.292941
0.173659
0.21202
0.30813
0.26258
0.219653
0.366104
0.443608
0.214673
0.0346413
0.241116
0.474712
0.350175
0.192738
0.350294
0.474765
0.240954
0.0343264
0.214404
0.443456
0.36598
0.219669
0.262912
0.308452
0.211978
0.173533
0.29301
0.376578
0.322043
0.261043
0.271709
0.2842
0.269779
0.276785
0.301922
0.298171
0.274782
0.273717
0.289816
0.292169
0.282531
0.280493
0.285947
0.288114
0.285587
0.288272
0.289393
0.283611
0.278365
0.283163
0.294535
0.292406
0.272573
0.267579
0.296381
0.315234
0.280384
0.238323
0.266565
0.334415
0.331175
0.246313
0.2063
0.287069
0.383358
0.342455
0.196068
0.161578
0.341268
0.509197
0.394013
0.134824
0.138084
0.434203
0.572429
0.32057
0.0638253
0.208604
0.528892
0.521742
0.205548
0.075205
0.309637
0.526738
0.423201
0.203777
0.185852
0.336205
0.412651
0.330179
0.215371
0.204961
0.288939
0.344074
0.303662
0.243426
0.254679
0.305518
0.31141
0.276013
0.264524
0.28677
0.298185
0.285697
0.277006
0.283145
0.288657
0.286489
0.283596
0.283099
0.284292
0.286923
0.286195
0.281153
0.282829
0.291256
0.286723
0.272333
0.281002
0.305536
0.293934
0.254562
0.259917
0.305078
0.310733
0.294377
0.328312
0.327001
0.177502
0.051243
0.181149
0.409715
0.456082
0.437
0.522313
0.430931
-0.0108263
-0.288952
0.0266368
0.497037
0.580307
0.500857
0.580402
0.49711
0.0266303
-0.288972
-0.0107713
0.431055
0.5224
0.437052
0.4562
0.409767
0.181018
0.0512327
0.177819
0.327317
0.328374
0.294382
0.310867
0.305247
0.259969
0.254599
0.294241
0.306001
0.281116
0.272264
0.287285
0.292096
0.282656
0.280577
0.287168
0.288461
0.283441
0.290614
0.288861
0.279721
0.278962
0.289599
0.295101
0.282204
0.268127
0.282065
0.309513
0.298699
0.252509
0.249315
0.312687
0.342936
0.276202
0.21741
0.276311
0.371197
0.369605
0.321689
0.35522
0.44046
0.463931
0.437674
0.450714
0.500141
0.516171
0.490171
0.475289
0.496643
0.522395
0.515784
0.48564
0.474116
0.498412
0.519652
0.493509
0.448455
0.451253
0.479305
0.444537
0.368965
0.36158
0.399084
0.35392
0.250002
0.237984
0.318668
0.342438
0.276269
0.239681
0.280761
0.315462
0.293764
0.266905
0.276472
0.294827
0.292192
0.281193
0.280362
0.285983
0.28853
0.286304
0.282474
0.282732
0.287805
0.288024
0.28118
0.281893
0.291049
0.287098
0.274354
0.285022
0.304389
0.281961
0.24628
0.27715
0.337022
0.314441
0.249746
0.267329
0.299928
0.218806
0.168383
0.322282
0.456421
0.326754
0.203093
0.361376
0.464743
0.202283
-0.00835427
0.229382
0.499878
0.362901
0.186584
0.362895
0.499875
0.229447
-0.00820341
0.202474
0.464949
0.361523
0.203101
0.326679
0.456289
0.322089
0.16835
0.219053
0.300127
0.267262
0.249659
0.314512
0.337087
0.277075
0.24624
0.282173
0.30463
0.284919
0.274226
0.287488
0.291365
0.281336
0.280797
0.288986
0.288341
0.281058
0.291346
0.287016
0.277975
0.282319
0.293418
0.290274
0.274419
0.273443
0.296634
0.307136
0.274819
0.244684
0.281732
0.34118
0.307936
0.20821
0.216372
0.349623
0.376207
0.214012
0.147061
0.347164
0.490691
0.27481
0.0045451
0.140401
0.503416
0.518369
0.143754
-0.0373092
0.265194
0.580855
0.413354
0.0210666
0.0136247
0.39952
0.57655
0.272732
-0.0397707
0.104607
0.444208
0.443236
0.15586
0.0742008
0.287904
0.410699
0.285505
0.178548
0.254989
0.348086
0.31361
0.245741
0.257634
0.304324
0.305647
0.277466
0.271414
0.286739
0.293732
0.286636
0.280122
0.282475
0.288571
0.288701
0.282364
0.281213
0.288675
0.289854
0.280545
0.280488
0.292324
0.289733
0.275174
0.283566
0.301118
0.280346
0.256238
0.298827
0.341583
0.270307
0.176316
0.23277
0.356591
0.364438
0.354442
0.451442
0.398785
0.0282406
-0.208116
0.0858147
0.505048
0.547875
0.4589
0.560906
0.496905
0.0107609
-0.314187
0.0107475
0.496885
0.560955
0.459003
0.547928
0.505069
0.0858341
-0.208122
0.0282975
0.398919
0.451479
0.354409
0.364463
0.356516
0.232535
0.176194
0.270355
0.341546
0.298611
0.256018
0.280218
0.300908
0.283142
0.274828
0.289662
0.292009
0.279695
0.280256
0.290371
0.288303
0.27956
0.290574
0.285093
0.278708
0.286234
0.29321
0.283482
0.272901
0.28419
0.30274
0.292592
0.259877
0.260667
0.312165
0.334152
0.259266
0.182305