# vtk DataFile Version 3.0
PFC-RG simulation results
ASCII
DATASET STRUCTURED_POINTS
DIMENSIONS 128 128 1
ORIGIN 0 0 0
SPACING 1 1 1
POINT_DATA 16384
SCALARS psi double
lOOKUP_TABLE default
0.482855
0.530138
0.476504
0.443028
0.488452
0.519782
0.507352
0.508457
0.527705
0.525478
0.507868
0.509475
0.527643
0.532208
0.518172
0.509439
0.5184
0.530145
0.527356
0.515422
0.512293
0.52197
0.530301
0.525269
0.51462
0.514086
0.525971
0.533579
0.524526
0.510911
0.513742
0.533526
0.542924
0.525164
0.500615
0.510353
0.550499
0.558239
0.508678
0.476771
0.534202
0.589993
0.53014
0.445065
0.504259
0.619351
0.571439
0.440166
0.469672
0.612458
0.603115
0.473286
0.467074
0.575681
0.595977
0.507696
0.473257
0.532386
0.572045
0.536706
0.489241
0.494001
0.535411
0.555261
0.533786
0.510758
0.511605
0.516153
0.51071
0.502137
0.492724
0.482109
0.49531
0.539448
0.49964
0.313344
0.230337
0.42032
0.584913
0.511858
0.475798
0.606803
0.506997
0.0253879
-0.233419
0.130677
0.577045
0.573682
0.453687
0.593548
0.569346
0.0302571
-0.381403
-0.0424887
0.531862
0.632252
0.510134
0.598517
0.536792
-0.00362913
-0.405234
-0.0705708
0.502994
0.621958
0.521916
0.612863
0.529675
-0.0271691
-0.413555
-0.0561872
0.514014
0.618858
0.520373
0.615729
0.523132
-0.0390023
-0.413958
-0.0494275
0.515586
0.623701
0.53127
0.608122
0.508182
0.00373747
-0.334793
-0.0634401
0.415183
0.594661
-0.0120132
0.0767611
0.305682
0.554311
0.478669
0.0970513
-0.0426516
0.301469
0.600876
0.374369
-0.0202945
0.0494811
0.475459
0.580432
0.19752
-0.0660544
0.206869
0.584199
0.469425
0.0449955
-0.0177336
0.379652
0.608392
0.307354
-0.0466753
0.10507
0.521642
0.544613
0.139169
-0.0541332
0.266988
0.593669
0.41247
0.0133553
0.0219954
0.419414
0.58045
0.256742
-0.0450237
0.13868
0.518775
0.504856
0.127731
-0.0259253
0.26595
0.523374
0.363683
0.1033
0.155696
0.368211
0.385907
0.291295
0.299666
0.295055
0.188152
0.204259
0.418265
0.47915
0.218928
0.0343039
0.251793
0.551989
0.458766
0.116644
0.0714174
0.400598
0.574363
0.306976
0.0423761
0.235414
0.585904
0.512678
0.126108
0.0447701
0.331822
0.478186
0.394081
0.390015
0.412896
0.277676
0.202361
0.371746
0.470342
0.266583
0.143501
0.369479
0.501694
0.243236
0.0801042
0.355573
0.548707
0.238042
-0.0430417
0.211096
0.512682
0.339306
0.123644
0.337504
0.530229
0.23746
-0.0499289
0.194377
0.511867
0.356855
0.134086
0.331568
0.520906
0.240952
-0.0265476
0.22165
0.516775
0.340415
0.121163
0.330259
0.519539
0.238997
-0.0223961
0.223917
0.515567
0.355358
0.1458
0.323612
0.499544
0.286438
0.049774
0.155883
0.379996
0.457733
-0.230482
-0.206794
0.0853174
0.448987
0.350794
-0.178161
-0.368853
0.102683
0.506882
0.189696
-0.35452
-0.257974
0.329521
0.474827
-0.0541977
-0.419791
-0.0429705
0.479792
0.321046
-0.267945
-0.355206
0.196862
0.514242
0.0946861
-0.397587
-0.184595
0.39497
0.423274
-0.143153
-0.407128
0.0462244
0.496023
0.230795
-0.32587
-0.295029
0.268314
0.471581
-0.00106907
-0.400596
-0.106917
0.406684
0.333679
-0.191661
-0.337231
0.0982406
0.401146
0.122864
-0.233797
-0.126466
0.188891
0.221657
0.0646564
0.0215533
0.00589087
-0.0801955
-0.0126215
0.240693
0.256201
-0.0965456
-0.286051
0.0425587
0.414321
0.228968
-0.252668
-0.281707
0.207975
0.465801
0.096898
-0.285877
-0.0370341
0.436291
0.321114
-0.209147
-0.276947
0.207365
0.531353
0.491149
0.430174
0.309817
-0.0436565
-0.263967
0.0129608
0.432096
0.522116
0.480206
0.571692
0.445441
-0.0806431
-0.37927
-0.0035546
0.502468
0.553716
0.454813
0.576284
0.510041
-0.0296509
-0.391078
-0.0293763
0.516152
0.588521
0.47097
0.580387
0.531223
-0.000990475
-0.385067
-0.0416853
0.510244
0.596383
0.485551
0.590155
0.525844
-0.0148732
-0.389005
-0.0339535
0.515669
0.597722
0.488853
0.587739
0.517386
-0.00657152
-0.367933
-0.0431155
0.487878
0.625019
0.527866
0.488801
0.409195
0.265651
0.167241
0.106681
0.241195
0.497233
0.48555
0.160399
0.028823
0.340892
0.613842
0.392927
0.0154481
0.0826524
0.490467
0.591726
0.225475
-0.0281817
0.232014
0.593968
0.484734
0.0770163
0.0160043
0.398151
0.618424
0.327768
-0.0137535
0.134359
0.53708
0.556113
0.161563
-0.020485
0.297862
0.610642
0.421572
0.0324161
0.0601608
0.4577
0.594074
0.257235
-0.0140416
0.205785
0.560472
0.486848
0.115357
0.0456768
0.375372
0.564161
0.325668
0.0757778
0.193334
0.433968
0.428545
0.288424
0.265298
0.276753
0.225725
0.269317
0.432072
0.41646
0.168935
0.0741599
0.323193
0.541131
0.352806
0.00824941
0.0285957
0.409019
0.588838
0.282364
-0.0497775
0.115051
0.4808
0.401005
0.0332315
0.0497687
0.396252
0.481343
0.343308
0.396108
0.441326
0.139536
-0.120856
0.116964
0.475911
0.435302
0.281267
0.421913
0.487311
0.122073
-0.15981
0.121546
0.505473
0.462199
0.325009
0.483399
0.521743
0.0966302
-0.217278
0.0912547
0.518124
0.480612
0.322121
0.475465
0.531024
0.111189
-0.218252
0.0825922
0.515251
0.476704
0.311319
0.464773
0.525242
0.112636
-0.206191
0.0969602
0.516716
0.46896
0.309887
0.465412
0.517576
0.110244
-0.198641
0.0838304
0.485396
0.47884
0.342015
0.406109
0.457044
0.368799
0.503327
0.545419
0.469384
0.423882
0.486469
0.552735
0.546531
0.515057
0.509861
0.521479
0.527939
0.523424
0.513323
0.510869
0.521353
0.529852
0.522336
0.51026
0.51319
0.526698
0.529458
0.517516
0.510138
0.518617
0.529403
0.526094
0.514718
0.512856
0.522693
0.529547
0.524004
0.515035
0.515523
0.525456
0.530829
0.522969
0.512589
0.516368
0.532949
0.538569
0.521671
0.502939
0.515198
0.548813
0.551391
0.508361
0.484529
0.535456
0.581744
0.52899
0.454856
0.507385
0.611259
0.568155
0.442218
0.4655
0.607949
0.609804
0.480076
0.456122
0.563593
0.605051
0.513308
0.439448
0.487843
0.583436
0.585186
0.445896
0.31858
0.407634
0.583747
0.556914
0.456183
0.546162
0.562802
0.195308
-0.116295
0.137021
0.551968
0.546225
0.389341
0.504785
0.534788
0.105483
-0.244481
0.0506114
0.52403
0.547158
0.406171
0.520223
0.520582
0.0778948
-0.24545
0.0652795
0.515666
0.512479
0.373628
0.510624
0.524367
0.0720145
-0.264641
0.0496981
0.514061
0.515084
0.370802
0.509271
0.527547
0.0683667
-0.2767
0.0418444
0.514951
0.521148
0.381264
0.517148
0.520907
0.0546981
-0.276046
0.0535185
0.5155
0.513934
0.381727
0.509388
0.495746
0.0583132
-0.221286
0.0862877
0.494089
0.538405
0.273781
0.57527
0.368813
-0.00354345
0.0657994
0.46959
0.572459
0.211254
-0.0563542
0.187076
0.568883
0.49257
0.0710817
-0.0354431
0.343898
0.611818
0.343398
-0.0373029
0.0731893
0.500442
0.567944
0.169319
-0.0635457
0.237943
0.596151
0.444411
0.0240998
0.00076456
0.410375
0.604271
0.276684
-0.0528814
0.136055
0.543643
0.525477
0.111393
-0.0446492
0.301421
0.60188
0.384082
-0.00521015
0.0450878
0.450751
0.571145
0.219841
-0.051707
0.175726
0.544248
0.479203
0.0869129
-0.0261395
0.301407
0.541655
0.336364
0.0523452
0.13114
0.395429
0.423178
0.268891
0.224568
0.279855
0.295022
0.324016
0.419496
0.422785
0.276995
0.187927
0.264393
0.388851
0.471843
0.458508
0.355208
0.378936
0.575693
0.519474
0.0206822
-0.308695
0.0270376
0.517661
0.547593
0.41638
0.543352
0.540151
0.0550217
-0.31683
0.00172802
0.509448
0.554561
0.429034
0.54839
0.519878
0.018321
-0.344874
-0.0136781
0.505613
0.569121
0.453921
0.565518
0.52233
0.0108581
-0.35314
-0.0157284
0.509222
0.571415
0.452038
0.565947
0.528104
0.0162639
-0.348876
-0.00934895
0.512279
0.566777
0.447339
0.564309
0.521252
0.00797834
-0.341924
0.00725083
0.513386
0.5554
0.449017
0.571082
0.506784
-0.00456244
-0.30265
0.0794638
0.518385
0.393631
-0.00517278
0.446121
0.211901
-0.283501
-0.212304
0.315985
0.455012
-0.0354462
-0.404529
-0.0703903
0.459367
0.357226
-0.225266
-0.375013
0.147742
0.518865
0.148977
-0.378133
-0.22726
0.36303
0.457227
-0.0942641
-0.417783
-0.000951643
0.49569
0.285265
-0.298776
-0.331412
0.23848
0.50793
0.0503874
-0.409453
-0.144665
0.424348
0.396837
-0.18253
-0.396842
0.0902548
0.505171
0.191707
-0.350538
-0.264349
0.308681
0.45912
-0.0471566
-0.40729
-0.0604909
0.437601
0.304441
-0.233988
-0.328073
0.145651
0.420569
0.0907617
-0.274859
-0.12059
0.248092
0.269159
0.0273699
-0.0662815
0.0206761
0.108009
0.185414
0.250489
0.154715
-0.0429772
-0.0474125
0.181952
0.399305
0.446633
0.268996
-0.0339275
-0.0862175
0.242814
0.476858
0.291698
0.124568
0.341564
0.479752
0.148883
-0.119289
0.168361
0.523117
0.403363
0.203934
0.382644
0.503348
0.150987
-0.133288
0.15789
0.519493
0.398693
0.196111
0.376927
0.515281
0.185803
-0.100408
0.167536
0.515452
0.397557
0.200714
0.383708
0.521883
0.189012
-0.102667
0.16408
0.516251
0.403096
0.210035
0.393068
0.521981
0.178183
-0.112093
0.162649
0.515213
0.401523
0.217232
0.402789
0.516546
0.165965
-0.105923
0.178394
0.507002
0.369827
0.201482
0.432553
0.561967
0.120574
0.215874
0.535431
0.34294
0.00443067
0.100116
0.489626
0.577844
0.233159
-0.0179872
0.21291
0.575884
0.508118
0.110508
0.00619638
0.363728
0.619872
0.366315
0.00209237
0.104535
0.511909
0.57792
0.196683
-0.0282366
0.259664
0.604181
0.458702
0.0529547
0.0296565
0.425784
0.613657
0.295214
-0.0254594
0.159016
0.556026
0.536789
0.132304
-0.0160977
0.325955
0.615349
0.393104
0.0135065
0.0790548
0.483758
0.585235
0.226539
-0.0186115
0.234626
0.57792
0.468554
0.0954728
0.0594202
0.404657
0.570725
0.311326
0.0711291
0.215082
0.475596
0.462023
0.27501
0.215354
0.290938
0.371222
0.424713
0.41074
0.268785
0.159919
0.26631
0.440632
0.496489
0.464893
0.283969
-0.0815586
-0.239443
0.097745
0.515247
0.566183
0.503338
0.610834
0.504313
-0.0488697
-0.398919
-0.0279155
0.520719
0.605113
0.505305
0.609059
0.521756
-0.0401611
-0.411248
-0.0390563
0.524282
0.614978
0.511351
0.611182
0.528187
-0.0308514
-0.415271
-0.0569078
0.51347
0.618607
0.516804
0.611981
0.529557
-0.0277033
-0.415367
-0.0606384
0.510215
0.617098
0.516545
0.612329
0.52797
-0.0305267
-0.413888
-0.0554655
0.511868
0.615729
0.518131
0.612902
0.522202
-0.0317717
-0.402395
-0.0473919
0.504114
0.599376
0.489128
0.585922
0.581076
0.160399
0.532631
0.561835
0.459998
0.420246
0.500673
0.543289
0.512104
0.502285
0.527423
0.527841
0.504581
0.505236
0.528187
0.533881
0.51658
0.506535
0.517855
0.530958
0.526247
0.51248
0.511026
0.523168
0.529645
0.521007
0.51143
0.515543
0.526246
0.52693
0.517235
0.512597
0.519783
0.52746
0.524143
0.515487
0.514684
0.522626
0.527674
0.522961
0.516042
0.516815
0.524733
0.528552
0.521891
0.513784
0.518049
0.532541
0.535213
0.51746
0.503203
0.521353
0.551307
0.54225
0.499136
0.493457
0.550248
0.574139
0.511964
0.469863
0.540227
0.602674
0.535687
0.470527
0.53665
0.592302
0.512908
0.483005
0.567057
0.512951
0.333177
0.332025
0.417418
0.28668
0.154925
0.334705
0.512123
0.338436
0.169734
0.366628
0.519815
0.248113
0.0194335
0.268425
0.521706
0.3122
0.0911839
0.316191
0.52736
0.270794
0.0270726
0.268499
0.522986
0.312592
0.0894607
0.313774
0.524417
0.261609
0.00567674
0.246707
0.519773
0.322606
0.0921552
0.30688
0.521228
0.265662
0.00939193
0.247165
0.519311
0.319978
0.0856106
0.300318
0.52002
0.2714
0.0189877
0.253916
0.519945
0.318627
0.08357
0.293506
0.515483
0.282335
0.0322983
0.24612
0.519373
0.365956
0.11411
0.222276
0.458647
0.447072
0.318603
0.190958
0.246125
0.466566
0.468335
0.133607
-0.0266765
0.293347
0.598954
0.381261
-0.0221589
0.0382758
0.469789
0.585666
0.203546
-0.0685221
0.200335
0.583768
0.475684
0.0486431
-0.0207599
0.377176
0.612469
0.313239
-0.0458808
0.103962
0.525312
0.55122
0.141405
-0.0549398
0.27261
0.605506
0.417626
0.00717299
0.0233974
0.43979
0.59741
0.247673
-0.0553238
0.167131
0.562304
0.504695
0.0856399
-0.0332186
0.333858
0.605793
0.353394
-0.0244087
0.0653182
0.477571
0.559287
0.1802
-0.0641824
0.208646
0.566034
0.438662
0.0308828
-0.00877267
0.372174
0.550053
0.266205
0.0228521
0.189381
0.443141
0.451852
0.399943
0.377877
0.172245
-0.054803
0.103674
0.469292
0.571499
0.51579
0.578238
0.47072
-0.0252855
-0.348011
-0.0114158
0.502067
0.586628
0.497255
0.600959
0.518162
-0.0274564
-0.393131
-0.0339729
0.515491
0.601949
0.501433
0.602898
0.518249
-0.0327791
-0.399861
-0.0374966
0.515411
0.601587
0.496664
0.599702
0.526032
-0.021581
-0.400144
-0.0461614
0.512192
0.605176
0.498958
0.600152
0.529309
-0.0178353
-0.401456
-0.0505716
0.51099
0.608467
0.502169
0.599938
0.529561
-0.0130179
-0.40063
-0.0624997
0.502386
0.621215
0.510173
0.575536
0.535141
0.0975941
-0.294895
-0.156488
0.290653
0.581781
-0.154161
-0.157932
0.0858227
0.424146
0.357948
-0.153981
-0.373114
0.0810621
0.504164
0.204394
-0.349762
-0.269579
0.320676
0.481048
-0.0435402
-0.420023
-0.0515476
0.477765
0.329618
-0.261169
-0.358922
0.19119
0.517863
0.103459
-0.395822
-0.189168
0.396121
0.433045
-0.136873
-0.411253
0.043912
0.50774
0.246163
-0.326505
-0.304111
0.277388
0.497403
0.00763694
-0.416732
-0.104618
0.449298
0.368122
-0.218848
-0.382761
0.133119
0.510053
0.152362
-0.370913
-0.232739
0.343971
0.443447
-0.0901309
-0.409654
-0.0129037
0.464232
0.263075
-0.283282
-0.299296
0.219367
0.425483
0.0296351
-0.275453
-0.0309494
0.31995
0.332896
0.217002
0.15928
0.0220127
-0.0583428
0.177755
0.449218
0.38515
0.272132
0.435354
0.4861
0.0995186
-0.193261
0.0979831
0.500363
0.451416
0.289191
0.444696
0.516061
0.127669
-0.175382
0.118004
0.512094
0.440439
0.271555
0.439468
0.518161
0.127526
-0.176433
0.119066
0.516694
0.449168
0.280078
0.4448
0.523231
0.130814
-0.180001
0.113086
0.516519
0.451692
0.27734
0.439768
0.524814
0.138372
-0.174463
0.114104
0.515901
0.449359
0.27078
0.431787
0.524707
0.148844
-0.168256
0.104053
0.508208
0.463525
0.275735
0.394603
0.512451
0.251892
-0.0525635
0.0218725
0.306696
0.46297
-0.165918
0.0272437
0.301924
0.554104
0.511681
0.15773
-0.00243732
0.310768
0.611304
0.407568
0.0217652
0.074725
0.482659
0.594355
0.232387
-0.0281881
0.225343
0.590718
0.488731
0.0801422
0.011596
0.391879
0.618628
0.331686
-0.0153987
0.127129
0.533782
0.560151
0.163809
-0.0278909
0.288486
0.611852
0.429917
0.0302808
0.0453212
0.451294
0.605662
0.263616
-0.033721
0.184204
0.572291
0.516324
0.106116
-0.00766434
0.354217
0.61767
0.366735
0.0024127
0.102943
0.50765
0.57529
0.202443
-0.0142591
0.268612
0.597139
0.448412
0.0734332
0.0807576
0.44279
0.563321
0.282226
0.103875
0.286589
0.469627
0.40623
0.332583
0.364447
0.349605
0.369993
0.518886
0.44975
-0.00472404
-0.267458
0.0873904
0.535907
0.522093
0.381729
0.516343
0.522429
0.0581498
-0.287605
0.0315911
0.514513
0.537306
0.404499
0.53192
0.520996
0.0393073
-0.304189
0.030317
0.519407
0.539579
0.40622
0.534054
0.522948
0.0427804
-0.301676
0.0281046
0.515731
0.537538
0.403646
0.532288
0.525954
0.0464257
-0.304922
0.0207827
0.513586
0.541511
0.407276
0.533505
0.527083
0.0463096
-0.309631
0.0135861
0.511813
0.548148
0.411991
0.527703
0.525853
0.0658503
-0.296233
-0.0164043
0.47623
0.579227
0.455533
0.457597
0.456327
0.299484
0.267874
0.439065
0.44543
0.416934
0.483049
0.541738
0.524803
0.500767
0.508847
0.523356
0.527857
0.52404
0.514652
0.51053
0.520241
0.530016
0.523297
0.51068
0.513019
0.526137
0.528559
0.517232
0.510987
0.519113
0.527934
0.52394
0.514214
0.513885
0.522815
0.52697
0.520321
0.513619
0.517157
0.52501
0.524869
0.517433
0.514641
0.520498
0.525809
0.522653
0.516019
0.515894
0.522848
0.52694
0.521703
0.514982
0.517708
0.526975
0.528214
0.518757
0.513361
0.521687
0.533517
0.531341
0.515161
0.504548
0.52123
0.548583
0.53491
0.479363
0.476256
0.561628
0.579581
0.431659
0.327876
0.466086
0.614758
0.532386
0.463871
0.580673
0.483072
-0.0186169
-0.307108
0.0619626
0.542003
0.556109
0.431866
0.559191
0.53095
0.0285626
-0.329826
0.00573014
0.514882
0.555989
0.428238
0.54924
0.524571
0.0286056
-0.321889
0.0170479
0.518825
0.551935
0.424895
0.548605
0.523131
0.025874
-0.32662
0.0101349
0.515093
0.553877
0.42688
0.548475
0.525579
0.0306279
-0.325636
0.00711137
0.513239
0.553168
0.423592
0.544701
0.526784
0.0364202
-0.320822
0.00747805
0.510621
0.550724
0.420514
0.538653
0.525724
0.0520697
-0.300748
0.0017235
0.479858
0.528093
0.397642
0.480489
0.526464
0.290501
0.499005
0.544963
0.205012
-0.134095
0.0269996
0.474643
0.58188
0.221556
-0.0551776
0.173788
0.560522
0.502821
0.0846947
-0.0360705
0.336012
0.612677
0.352736
-0.0316168
0.0713061
0.498576
0.571951
0.175845
-0.060658
0.237199
0.597169
0.449711
0.0291806
0.00138724
0.410002
0.608529
0.283377
-0.0505648
0.13507
0.546494
0.532977
0.116314
-0.0442675
0.304903
0.611548
0.391042
-0.00773427
0.0453621
0.465795
0.588169
0.218526
-0.0583858
0.195203
0.57685
0.480626
0.0582292
-0.0224371
0.363611
0.603087
0.31762
-0.0423314
0.0835325
0.491354
0.542851
0.157355
-0.0784803
0.187439
0.539257
0.424171
0.016391
-0.0335614
0.362511
0.546077
0.213953
-0.0462311
0.208126
0.506572
0.381697
0.22252
0.414455
0.51293
0.149336
-0.132107
0.156513
0.51999
0.416096
0.231794
0.410854
0.520611
0.155256
-0.144249
0.140801
0.51876
0.428065
0.248044
0.42212
0.519949
0.147049
-0.14953
0.140314
0.518541
0.42664
0.245441
0.419455
0.521837
0.153472
-0.14648
0.137506
0.516993
0.429574
0.248264
0.420322
0.523085
0.15353
-0.150974
0.131628
0.516187
0.434799
0.255157
0.424048
0.521191
0.148415
-0.154873
0.128182
0.511572
0.435523
0.265351
0.43201
0.514174
0.134234
-0.162006
0.12481
0.509635
0.42564
0.292984
0.445787
0.0652806
-0.379574
-0.218847
0.333046
0.467563
-0.0185836
-0.397901
-0.0861361
0.446529
0.367995
-0.209945
-0.378265
0.135277
0.517802
0.157963
-0.37479
-0.233036
0.35879
0.460613
-0.0893163
-0.418562
-0.0053336
0.495332
0.290617
-0.295018
-0.334547
0.234423
0.511542
0.0583565
-0.408208
-0.150123
0.424322
0.406487
-0.17539
-0.401084
0.0860162
0.515377
0.208063
-0.34977
-0.276012
0.312331
0.48417
-0.0326079
-0.419989
-0.0650454
0.469444
0.336659
-0.251833
-0.363595
0.175296
0.509564
0.113879
-0.382148
-0.200682
0.36643
0.434936
-0.0899931
-0.393119
-0.0226892
0.437476
0.294423
-0.17381
-0.177185
0.297272
0.440964
-0.0390456
-0.394066
-0.0442857
0.502668
0.600852
0.502295
0.591155
0.500515
-0.0443962
-0.40654
-0.0440385
0.512953
0.608417
0.509252
0.608944
0.524645
-0.0324453
-0.409948
-0.0474844
0.51554
0.609911
0.507771
0.607284
0.522137
-0.0347716
-0.408747
-0.044349
0.517118
0.610536
0.508404
0.607967
0.5251
-0.0303179
-0.408841
-0.0495545
0.51385
0.611332
0.508532
0.606957
0.52704
-0.0263402
-0.407496
-0.0510628
0.512316
0.610367
0.507746
0.606285
0.525821
-0.0262681
-0.402585
-0.0454967
0.509077
0.600144
0.502333
0.608569
0.529437
-0.0165433
-0.369361
0.00391709
0.514046
0.472515
0.0600601
0.451707
0.335298
0.0604647
0.152663
0.489697
0.555484
0.234319
-0.00437103
0.209576
0.565668
0.510823
0.116367
-0.000163198
0.352979
0.61817
0.369263
-0.00146212
0.0960613
0.507655
0.578812
0.195816
-0.0339346
0.253568
0.602417
0.459967
0.0516779
0.0236187
0.420103
0.613775
0.29794
-0.0281371
0.151283
0.55249
0.540801
0.134486
-0.0239313
0.315996
0.616638
0.402537
0.0123546
0.0633007
0.474937
0.596307
0.235615
-0.035739
0.21204
0.586576
0.495753
0.0864845
0.00904142
0.384108
0.617475
0.346781
0.00796092
0.133529
0.521439
0.572215
0.223259
0.0218376
0.271879
0.58904
0.501236
0.171669
0.132065
0.425384
0.52574
0.207217
-0.0282484
0.215795
0.491553
0.315158
0.089597
0.290571
0.507502
0.281108
0.0489848
0.27664
0.516135
0.294357
0.0600268
0.286382
0.520108
0.288191
0.0505925
0.282417
0.519803
0.285695
0.045753
0.278941
0.520785
0.292689
0.056361
0.286412
0.520431
0.285276
0.0454758
0.277907
0.520336
0.293213
0.0546549
0.283027
0.520173
0.287028
0.043439
0.273335
0.519973
0.297845
0.0594913
0.28556
0.51994
0.283226
0.0377029
0.26929
0.519213
0.301394
0.068385
0.294482
0.520237
0.276097
0.0306717
0.262368
0.511672
0.304002
0.0910116
0.327049
0.547766
0.305025
0.141853
0.456127
0.508773
0.511225
0.555371
0.529089
0.465986
0.482533
0.538698
0.537203
0.502573
0.503053
0.527401
0.531173
0.516309
0.511048
0.520257
0.52739
0.523258
0.515331
0.514889
0.522152
0.526258
0.520802
0.51404
0.516656
0.524584
0.525128
0.517488
0.513998
0.520017
0.525766
0.522379
0.515498
0.515769
0.522473
0.525192
0.519855
0.514904
0.518116
0.524458
0.523892
0.517325
0.515202
0.52092
0.525863
0.522287
0.514935
0.514889
0.524018
0.529217
0.519234
0.507121
0.516065
0.537092
0.532084
0.501962
0.498474
0.533787
0.548551
0.520507
0.509065
0.523228
0.496167
0.444139
0.460249
0.510524
0.48373
0.473864
0.577923
0.477336
-0.0277553
-0.365055
-0.0244434
0.509856
0.60682
0.512861
0.607037
0.518905
-0.031937
-0.404224
-0.0448651
0.514329
0.60991
0.510249
0.610003
0.523809
-0.0346815
-0.410009
-0.0451366
0.517673
0.612015
0.511016
0.609992
0.523003
-0.0352212
-0.410839
-0.0475632
0.515689
0.612022
0.510649
0.609343
0.525535
-0.0313671
-0.411397
-0.0515619
0.514014
0.613223
0.51152
0.609678
0.526181
-0.0315607
-0.412484
-0.0519761
0.514289
0.613836
0.513047
0.61082
0.526777
-0.0266939
-0.405976
-0.0584304
0.496638
0.608885
0.518724
0.596917
0.535967
0.146454
0.381192
0.277748
0.219543
0.415973
0.480036
0.158537
-0.0402167
0.270613
0.599496
0.391999
-0.0184463
0.0373632
0.469983
0.58857
0.210244
-0.0602824
0.204722
0.584502
0.479195
0.0565307
-0.0147177
0.378251
0.613807
0.319001
-0.0397512
0.10563
0.525253
0.554898
0.14772
-0.0517903
0.271876
0.606591
0.423332
0.0122454
0.0230921
0.438479
0.601949
0.255246
-0.0537174
0.163387
0.563398
0.513763
0.092639
-0.0345745
0.332766
0.613755
0.363903
-0.0231619
0.0624682
0.485022
0.576398
0.188866
-0.0693442
0.209134
0.584015
0.456999
0.0229719
-0.033505
0.371611
0.590812
0.288979
-0.0425692
0.0824929
0.409019
0.46241
0.288673
0.200854
0.24671
0.356492
0.506989
0.468274
0.102158
-0.130846
0.156005
0.503586
0.413896
0.250162
0.424788
0.517959
0.148547
-0.145039
0.141881
0.516592
0.423413
0.24292
0.418574
0.521431
0.154615
-0.139441
0.147562
0.518443
0.419459
0.23753
0.415628
0.521145
0.155966
-0.138538
0.146758
0.518246
0.421131
0.238071
0.41449
0.522199
0.159317
-0.137058
0.146081
0.517935
0.419953
0.234229
0.411017
0.522641
0.162998
-0.132365
0.149937
0.51868
0.416886
0.228958
0.405228
0.521366
0.174249
-0.116286
0.147331
0.505012
0.435852
0.269254
0.384101
0.457969
0.256324
0.469762
0.154174
-0.0193453
0.234261
0.339907
-0.0762586
-0.33948
0.0694239
0.497593
0.207372
-0.35108
-0.272545
0.321163
0.481994
-0.0443156
-0.421033
-0.0521921
0.47748
0.330518
-0.259959
-0.359772
0.189062
0.518143
0.106373
-0.39482
-0.192028
0.393964
0.4357
-0.13289
-0.412143
0.0395164
0.507536
0.252
-0.32285
-0.308369
0.272435
0.501689
0.0170513
-0.415721
-0.112682
0.447365
0.379347
-0.20923
-0.388297
0.124712
0.519137
0.172398
-0.367605
-0.248856
0.340675
0.470871
-0.0634376
-0.419157
-0.0354576
0.480385
0.313048
-0.268241
-0.340091
0.203981
0.497625
0.0965304
-0.346586
-0.167675
0.325486
0.477608
0.243155
-0.0214758
-0.151374
-0.094367
0.197213
0.484083
0.489333
0.436072
0.564151
0.500671
0.00299545
-0.322664
0.023259
0.517814
0.55017
0.427051
0.551225
0.522795
0.0226787
-0.329015
0.0111621
0.516961
0.555031
0.430695
0.5532
0.522087
0.019135
-0.332123
0.0105053
0.517864
0.556491
0.431752
0.553489
0.523329
0.0215074
-0.332015
0.00769417
0.516226
0.557431
0.4326
0.553872
0.52454
0.0217458
-0.334372
0.00539817
0.516546
0.55945
0.434987
0.555616
0.523868
0.0191993
-0.336174
0.00358414
0.514637
0.56442
0.444194
0.548904
0.510794
0.0543476
-0.25983
0.00475916
0.40617
0.512358
0.348832
0.335773
0.251466
0.419441
0.515021
0.226564
0.020803
0.300926
0.609193
0.407178
0.0114478
0.0658321
0.482393
0.59313
0.223328
-0.0392593
0.219622
0.589442
0.486042
0.0733365
0.00381854
0.387558
0.617652
0.329768
-0.0207822
0.120905
0.530777
0.560188
0.162573
-0.0329783
0.282752
0.610341
0.431912
0.0296421
0.0393136
0.445589
0.606537
0.267898
-0.0351858
0.176275
0.568251
0.521681
0.110755
-0.0148558
0.343111
0.61949
0.379355
0.00352898
0.0855105
0.495817
0.588887
0.22134
-0.0241336
0.240079
0.596258
0.485649
0.094192
0.0486797
0.413143
0.604606
0.343384
0.0694435
0.191696
0.490893
0.578116
0.429087
0.189842
-0.0437086
-0.0826645
0.196398
0.498511
0.501092
0.436011
0.561233
0.507206
0.0224293
-0.297148
0.0422814
0.519457
0.533672
0.403022
0.534313
0.523289
0.0414994
-0.301383
0.0317982
0.517529
0.533898
0.399628
0.530793
0.522448
0.0428546
-0.298578
0.0343873
0.518145
0.533017
0.398443
0.529917
0.522985
0.0445245
-0.298561
0.0322349
0.516788
0.533
0.397493
0.528618
0.523755
0.0467424
-0.296623
0.0338267
0.51697
0.530336
0.39409
0.526783
0.522224
0.0464529
-0.291863
0.039359
0.514262
0.524575
0.395091
0.5219
0.5057
0.0579598
-0.242809
0.0402646
0.43665
0.513686
0.191887
0.56788
0.552417
0.491289
0.553318
0.566689
0.506168
0.492308
0.526561
0.536432
0.521569
0.516744
0.51942
0.517648
0.518402
0.523311
0.522114
0.515826
0.516048
0.522723
0.524409
0.518609
0.515222
0.519581
0.524489
0.522307
0.516641
0.516314
0.521778
0.5245
0.520163
0.515546
0.518008
0.52374
0.523586
0.517663
0.515351
0.520414
0.524983
0.521771
0.515541
0.516048
0.522942
0.525548
0.519016
0.513125
0.518022
0.527031
0.525254
0.514055
0.511225
0.522811
0.531645
0.522788
0.50752
0.508886
0.528994
0.53839
0.510241
0.474382
0.497685
0.565168
0.549509
0.416957
0.354497
0.468154
0.539761
0.417739
0.349442
0.492834
0.491683
0.116424
-0.140734
0.144476
0.511527
0.442259
0.286548
0.452191
0.52071
0.124472
-0.180047
0.118016
0.518097
0.4506
0.282136
0.447759
0.522159
0.12443
-0.18392
0.115366
0.518822
0.453184
0.285173
0.449571
0.521564
0.12252
-0.185713
0.113961
0.518371
0.453809
0.285407
0.449213
0.522235
0.123535
-0.186686
0.111885
0.517925
0.455271
0.287772
0.451422
0.521526
0.11914
-0.189733
0.113065
0.51865
0.454541
0.291973
0.457016
0.51501
0.10676
-0.184539
0.128697
0.513111
0.436081
0.286087
0.437976
0.484321
0.174508
0.229397
0.571362
0.36539
0.0298508
0.11808
0.478281
0.55641
0.224678
-0.0250733
0.197471
0.564163
0.500639
0.0914046
-0.0229468
0.344684
0.614515
0.355425
-0.0235954
0.0794726
0.501733
0.573565
0.181282
-0.0534762
0.240839
0.598175
0.453199
0.0353569
0.00541398
0.410596
0.61021
0.288597
-0.0459798
0.135262
0.545875
0.536879
0.122296
-0.0430403
0.301978
0.612274
0.397448
-0.00371786
0.0419451
0.462276
0.593241
0.226952
-0.059463
0.185777
0.575404
0.493326
0.0671285
-0.0326759
0.349769
0.610633
0.33825
-0.041302
0.0629143
0.482383
0.55741
0.165159
-0.0915545
0.18262
0.559305
0.433722
-0.0367586
-0.148372
0.271099
0.623259
0.545112
0.430085
0.559094
0.497368
-0.02193
-0.379594
-0.03589
0.509561
0.605487
0.504354
0.600341
0.519876
-0.0264909
-0.397191
-0.0382372
0.515877
0.603269
0.498817
0.60132
0.523566
-0.0263073
-0.39818
-0.0369892
0.517179
0.602524
0.497503
0.600491
0.52284
-0.0265658
-0.397823
-0.0369225
0.516903
0.602472
0.497297
0.600323
0.523938
-0.0248152
-0.397341
-0.0375631
0.51628
0.601783
0.496852
0.600428
0.522613
-0.027264
-0.395286
-0.030688
0.518432
0.597066
0.496226
0.603775
0.514179
-0.042567
-0.387659
-0.00235333
0.524401
0.572914
0.478643
0.596978
0.502529
-0.0391333
0.462689
0.528436
0.0925573
-0.36586
-0.211871
0.331542
0.467016
-0.0138102
-0.391922
-0.0814946
0.447214
0.362971
-0.214924
-0.37639
0.140545
0.518319
0.154004
-0.376616
-0.231158
0.360306
0.460067
-0.0899693
-0.418632
-0.00577516
0.495111
0.291743
-0.294002
-0.335809
0.23233
0.512226
0.0615207
-0.407415
-0.153581
0.421863
0.409782
-0.170643
-0.402523
0.0803058
0.515187
0.215359
-0.345646
-0.281971
0.305829
0.489786
-0.0203991
-0.419343
-0.0775663
0.465389
0.353298
-0.236065
-0.373427
0.156151
0.518698
0.147497
-0.371549
-0.228326
0.347559
0.46132
-0.0519408
-0.391038
-0.0434425
0.436122
0.308071
-0.197822
-0.253259
0.251386
0.539359
0.232086
-0.0395999
0.222858
0.517799
0.331091
0.0938118
0.297403
0.515891
0.269681
0.0125617
0.24462
0.515459
0.321705
0.0961314
0.312039
0.520032
0.258644
0.00617013
0.249398
0.519407
0.320005
0.0954067
0.314406
0.520296
0.255269
0.00316125
0.248763
0.519916
0.321091
0.0969661
0.315468
0.520559
0.2552
0.00254975
0.24779
0.519828
0.322043
0.0978948
0.316014
0.520395
0.253745
0.00113275
0.247843
0.519611
0.321428
0.101446
0.322283
0.518983
0.244849
-0.000190931
0.255241
0.516773
0.307622
0.102264
0.338509
0.518059
0.229058
0.00907609
0.283685
0.508177
0.208681
0.534032
0.579118
0.248634
-0.0673683
0.0804635
0.488215
0.580633
0.235939
-0.0292641
0.190756
0.564125
0.507438
0.102335
-0.0117878
0.351362
0.617303
0.361116
-0.0120383
0.0905914
0.506565
0.57632
0.189487
-0.0412042
0.2492
0.60108
0.458123
0.0468131
0.0176045
0.41655
0.613098
0.296979
-0.0319029
0.146125
0.549697
0.541493
0.13495
-0.0275014
0.310707
0.615572
0.406216
0.0139306
0.0584114
0.469344
0.598464
0.243457
-0.0338714
0.204194
0.581617
0.504817
0.0987853
0.00548486
0.370346
0.61968
0.368421
0.0173809
0.11416
0.504236
0.590075
0.255595
0.0206789
0.232866
0.556632
0.510367
0.209814
0.178744
0.480465
0.522476
0.0243218
-0.354225
-0.0289164
0.515432
0.615824
0.509981
0.600677
0.52564
-0.0227796
-0.411415
-0.0596652
0.511433
0.618868
0.518546
0.612732
0.523618
-0.0374523
-0.416634
-0.0521114
0.516096
0.616386
0.517251
0.614513
0.523225
-0.040289
-0.417462
-0.0504046
0.517352
0.616456
0.517286
0.614702
0.523434
-0.0399664
-0.41759
-0.0512435
0.516649
0.616286
0.5173
0.614885
0.523378
-0.0407216
-0.417485
-0.0492161
0.517839
0.615346
0.518061
0.616686
0.518592
-0.0493364
-0.415328
-0.0370354
0.521756
0.609761
0.520166
0.621835
0.507651
-0.0574055
-0.391461
-0.0127977
0.503596
0.545525
0.244448
0.484451
0.50563
0.475709
0.505496
0.518565
0.496181
0.498525
0.520924
0.523359
0.514155
0.516382
0.523189
0.522223
0.518421
0.518857
0.521334
0.522031
0.520695
0.518875
0.518711
0.520815
0.522212
0.520284
0.517688
0.518701
0.522034
0.52236
0.518835
0.516918
0.519935
0.523396
0.52165
0.517108
0.51699
0.52181
0.523992
0.519742
0.515565
0.518371
0.524236
0.523751
0.516795
0.513976
0.520792
0.527526
0.522425
0.511357
0.512137
0.526401
0.531874
0.515553
0.500893
0.515474
0.539738
0.530427
0.498742
0.502728
0.540549
0.54006
0.49844
0.504981
0.557183
0.54015
0.481988
0.522213
0.513782
0.22837
-0.0112527
0.199453
0.491002
0.377854
0.199802
0.383509
0.520022
0.191076
-0.098775
0.166595
0.515283
0.397063
0.201696
0.386931
0.520738
0.183706
-0.101076
0.173091
0.518847
0.394751
0.201
0.389206
0.521231
0.182435
-0.100389
0.175272
0.519262
0.393246
0.199612
0.388605
0.521185
0.182874
-0.0999659
0.175247
0.519075
0.392996
0.199234
0.3885
0.521195
0.182638
-0.0991884
0.177431
0.519549
0.390699
0.198632
0.390358
0.519468
0.17875
-0.0956239
0.185443
0.520783
0.392503
0.212283
0.397884
0.50585
0.174938
-0.0789374
0.162948
0.475261
0.462575
-0.0212784
0.175712
0.368812
0.560527
0.478859
0.108214
-0.0339238
0.304511
0.606374
0.387756
-0.00323508
0.0600402
0.477959
0.586945
0.215138
-0.0480381
0.214049