# vtk DataFile Version 3.0
PFC-RG simulation results
ASCII
DATASET STRUCTURED_POINTS
DIMENSIONS 128 128 1
ORIGIN 0 0 0
SPACING 1 1 1
POINT_DATA 16384
SCALARS psi double
lOOKUP_TABLE default
0.508726
0.549705
0.480757
0.452395
0.498748
0.511714
0.490566
0.507494
0.53936
0.526983
0.495268
0.500913
0.533252
0.539878
0.513056
0.496487
0.515293
0.540137
0.532832
0.504581
0.499133
0.525681
0.54393
0.525304
0.49849
0.505322
0.537003
0.545488
0.51715
0.494501
0.512392
0.547232
0.548517
0.513075
0.488326
0.514511
0.562186
0.558284
0.495543
0.466208
0.53584
0.596019
0.529359
0.436949
0.495534
0.615061
0.571694
0.440989
0.466696
0.607011
0.600557
0.471337
0.460784
0.570712
0.599405
0.511792
0.46581
0.52075
0.574246
0.548867
0.487904
0.475298
0.52449
0.565831
0.545331
0.499959
0.488624
0.509591
0.522348
0.50509
0.476969
0.469185
0.499712
0.545179
0.487556
0.295571
0.230322
0.431429
0.587762
0.508099
0.475
0.604718
0.494841
0.00916852
-0.240618
0.131692
0.576882
0.572196
0.456924
0.596655
0.561886
0.0178443
-0.384942
-0.0392061
0.532118
0.630287
0.510459
0.599726
0.538089
-0.000769249
-0.403925
-0.0740726
0.499752
0.622737
0.520211
0.608639
0.536776
-0.00983427
-0.410691
-0.074673
0.499262
0.618605
0.516681
0.607978
0.534767
-0.0118551
-0.406255
-0.0701867
0.493854
0.614966
0.524585
0.600846
0.510023
0.0224
-0.297604
-0.030178
0.40878
0.553813
0.13236
0.139858
0.301619
0.548009
0.48433
0.0933597
-0.0516969
0.303136
0.60315
0.360849
-0.0400246
0.0422224
0.477301
0.573649
0.178625
-0.0826954
0.202311
0.583052
0.457521
0.0231192
-0.0347386
0.374721
0.603635
0.289355
-0.0720829
0.0889965
0.516942
0.535605
0.116955
-0.0786049
0.253988
0.588266
0.400092
-0.00969655
-0.000422896
0.408142
0.576517
0.247692
-0.0653467
0.115227
0.50618
0.504827
0.125559
-0.0432554
0.242542
0.515672
0.373852
0.107098
0.135499
0.341053
0.380015
0.302452
0.301527
0.282406
0.179652
0.208234
0.422776
0.479318
0.225716
0.0510204
0.265963
0.557631
0.467427
0.137048
0.0946594
0.41325
0.580717
0.326628
0.0804978
0.269065
0.591782
0.498706
0.118242
0.0505525
0.338593
0.484523
0.406915
0.396026
0.398057
0.256193
0.194894
0.375927
0.470126
0.260525
0.143461
0.375063
0.50255
0.239797
0.0800783
0.357447
0.54809
0.243012
-0.0247737
0.229897
0.513736
0.322667
0.102006
0.321812
0.529346
0.254999
-0.0244259
0.210799
0.512407
0.343166
0.108122
0.306213
0.520467
0.268861
0.00161168
0.230706
0.515509
0.330745
0.0903077
0.293451
0.518498
0.281449
0.0250889
0.24645
0.512487
0.325164
0.0881127
0.267482
0.487853
0.336007
0.13422
0.213321
0.376069
0.443361
-0.0416531
-0.141471
0.065219
0.439669
0.37157
-0.159247
-0.357867
0.114946
0.510792
0.18033
-0.358185
-0.24468
0.34263
0.471555
-0.0630309
-0.416335
-0.0305064
0.48492
0.315743
-0.271114
-0.348866
0.204839
0.514317
0.0901215
-0.397217
-0.178658
0.39834
0.420898
-0.145269
-0.405047
0.0486144
0.495311
0.229733
-0.325494
-0.29702
0.263442
0.470338
0.00292964
-0.401505
-0.1187
0.396077
0.336259
-0.187064
-0.350948
0.0723278
0.391926
0.135512
-0.231722
-0.158456
0.146852
0.207941
0.0736941
0.0153936
-0.0274593
-0.11394
-0.0240103
0.241608
0.250218
-0.109927
-0.294353
0.0452392
0.420637
0.228169
-0.260247
-0.283232
0.21843
0.47869
0.105973
-0.269792
-0.0090466
0.452684
0.309004
-0.228366
-0.279186
0.214015
0.531707
0.484016
0.412002
0.278776
-0.0697972
-0.265662
0.0286538
0.442016
0.521948
0.483722
0.577461
0.440259
-0.0918465
-0.38051
0.00479036
0.508792
0.558202
0.464386
0.585367
0.508669
-0.0388194
-0.399765
-0.0351208
0.514964
0.594774
0.480987
0.58692
0.533918
-0.00120374
-0.39404
-0.0579057
0.503316
0.605358
0.495422
0.594041
0.535862
-0.00225536
-0.397455
-0.0613811
0.502093
0.608907
0.502954
0.595639
0.529676
0.00299554
-0.381191
-0.0738496
0.467989
0.633354
0.551554
0.489754
0.379895
0.271198
0.273427
0.126994
0.212917
0.494302
0.510103
0.180266
0.0408599
0.352548
0.618264
0.391989
0.0261259
0.105396
0.504749
0.591093
0.228618
-0.00972043
0.251577
0.599921
0.486264
0.0908767
0.0385931
0.412068
0.621554
0.336835
0.00902587
0.156379
0.545231
0.560542
0.179125
0.00540301
0.313294
0.6144
0.432025
0.0560975
0.0802308
0.462775
0.597508
0.273696
0.00597018
0.212302
0.558626
0.494083
0.129777
0.0484918
0.3645
0.560058
0.336012
0.0800664
0.174928
0.408045
0.419912
0.292091
0.255197
0.245797
0.19504
0.257573
0.431544
0.407854
0.145606
0.0481148
0.310911
0.540613
0.341593
-0.0243932
-0.00251586
0.401829
0.586277
0.249205
-0.0998852
0.0960067
0.492348
0.405
0.026119
0.0493587
0.391988
0.455232
0.306291
0.367038
0.42309
0.134842
-0.10604
0.138297
0.479435
0.422497
0.275703
0.42558
0.482646
0.111975
-0.157217
0.134176
0.508189
0.449881
0.310243
0.474421
0.519892
0.105575
-0.198887
0.106175
0.518293
0.466855
0.301802
0.458945
0.53135
0.131137
-0.19505
0.0923903
0.512131
0.464347
0.287358
0.441289
0.528713
0.144104
-0.178403
0.102782
0.510248
0.451416
0.272878
0.429717
0.521474
0.154989
-0.150766
0.104756
0.475822
0.450404
0.30905
0.369579
0.421176
0.372128
0.520114
0.540353
0.459356
0.435678
0.504528
0.556989
0.543903
0.51427
0.508091
0.52093
0.534215
0.529185
0.507997
0.501266
0.522423
0.539316
0.523414
0.499146
0.505952
0.533742
0.53833
0.512152
0.496775
0.516905
0.541328
0.531779
0.503355
0.500537
0.527734
0.543074
0.523366
0.499852
0.508608
0.536544
0.541296
0.51609
0.499322
0.516399
0.544018
0.542468
0.513359
0.495458
0.518041
0.555751
0.552279
0.502613
0.478711
0.534503
0.584622
0.530759
0.451795
0.500518
0.606069
0.567907
0.443907
0.463528
0.602833
0.607641
0.477862
0.444978
0.550234
0.60604
0.522541
0.432023
0.46659
0.579331
0.59408
0.41687
0.245868
0.357925
0.585859
0.571892
0.461649
0.549652
0.554975
0.165472
-0.145694
0.131311
0.559345
0.553113
0.400674
0.5149
0.524653
0.0818457
-0.252164
0.0615782
0.529865
0.543955
0.409447
0.528054
0.516125
0.0605302
-0.260157
0.060437
0.51776
0.521905
0.389701
0.523318
0.524414
0.0603533
-0.282137
0.0342084
0.51169
0.529662
0.390281
0.520877
0.531437
0.0642393
-0.295999
0.0155079
0.507326
0.538906
0.402293
0.528544
0.529183
0.0531089
-0.303423
0.0158645
0.504827
0.538064
0.415206
0.530307
0.497426
0.0454082
-0.232804
0.0823135
0.488861
0.539244
0.290437
0.592254
0.38446
0.0189332
0.0835017
0.471204
0.564252
0.203641
-0.0584072
0.190308
0.569153
0.480533
0.0523023
-0.0451022
0.345697
0.609497
0.327215
-0.0567994
0.0647111
0.500012
0.560586
0.150056
-0.0832999
0.228655
0.592511
0.433151
0.00234006
-0.019989
0.40046
0.599256
0.262969
-0.076954
0.114977
0.53495
0.520838
0.0969802
-0.0683178
0.282552
0.595914
0.382109
-0.0175655
0.0220213
0.433809
0.572575
0.227214
-0.0615469
0.149656
0.530649
0.492731
0.102914
-0.0375218
0.273552
0.535822
0.362088
0.074472
0.116022
0.360163
0.414945
0.293347
0.23549
0.255645
0.279344
0.352145
0.453444
0.422994
0.281225
0.237202
0.311278
0.382029
0.448025
0.455051
0.352272
0.365187
0.567403
0.517498
0.0183001
-0.298102
0.0527731
0.528909
0.532471
0.400619
0.538874
0.530296
0.0406231
-0.312792
0.0217839
0.518508
0.548007
0.424303
0.548488
0.515637
0.014439
-0.33691
0.000169032
0.509321
0.560385
0.442416
0.557759
0.521537
0.0194394
-0.340137
-0.00831176
0.507633
0.56304
0.438037
0.553484
0.531579
0.0360321
-0.332857
-0.00907672
0.505935
0.558418
0.429867
0.54757
0.52936
0.0381002
-0.319491
0.00905978
0.504363
0.538626
0.42427
0.552634
0.507136
0.0121989
-0.273888
0.109621
0.530936
0.39024
0.0429913
0.479394
0.224769
-0.269196
-0.191935
0.327938
0.452824
-0.0398073
-0.397461
-0.0552523
0.464947
0.34692
-0.234174
-0.366839
0.162226
0.519489
0.13787
-0.381535
-0.217442
0.371266
0.453924
-0.100342
-0.415841
0.00543934
0.49747
0.282965
-0.298939
-0.32934
0.239049
0.508137
0.0530304
-0.407637
-0.147706
0.42112
0.400503
-0.176038
-0.39873
0.0806661
0.502803
0.202287
-0.343778
-0.276561
0.292165
0.463847
-0.0281446
-0.408039
-0.0875594
0.421194
0.321702
-0.214629
-0.346379
0.105744
0.410714
0.120378
-0.256971
-0.158645
0.182943
0.248294
0.0622551
-0.0485003
-0.0262668
0.0553101
0.197981
0.28619
0.139335
-0.0684455
0.000584788
0.273561
0.45491
0.465074
0.273538
-0.0522442
-0.120032
0.224784
0.481898
0.307871
0.151156
0.367272
0.473652
0.112423
-0.144409
0.170893
0.529012
0.403113
0.213409
0.397825
0.501554
0.134544
-0.142267
0.160015
0.522036
0.404062
0.212099
0.393486
0.514808
0.168275
-0.120777
0.154787
0.515366
0.412309
0.223037
0.399335
0.52295
0.175869
-0.126728
0.141055
0.513531
0.424349
0.235603
0.406808
0.525415
0.169987
-0.139172
0.131227
0.510706
0.428978
0.25067
0.422876
0.51949
0.146952
-0.141796
0.150745
0.504823
0.386463
0.225136
0.451175
0.560999
0.106492
0.25252
0.550399
0.335032
0.00405208
0.117455
0.504739
0.578404
0.232144
-0.00593397
0.230957
0.582905
0.504703
0.114859
0.0249418
0.380576
0.621999
0.36523
0.0142611
0.124447
0.522311
0.578965
0.204946
-0.00835424
0.276134
0.609002
0.464878
0.0720665
0.0512071
0.435077
0.617666
0.31091
-0.000739217
0.174402
0.559402
0.545967
0.15515
0.00432059
0.330912
0.617665
0.410112
0.0363608
0.086168
0.478352
0.591716
0.248241
-0.00748569
0.223763
0.569599
0.482423
0.111536
0.0497248
0.379456
0.564239
0.329156
0.0794066
0.184822
0.426298
0.446199
0.304193
0.229391
0.242537
0.308804
0.418942
0.426983
0.232023
0.100098
0.258163
0.466202
0.505391
0.472504
0.304919
-0.0750608
-0.251389
0.0938914
0.520916
0.565509
0.500807
0.609971
0.489934
-0.0708276
-0.397284
-0.00291397
0.534821
0.59949
0.50198
0.610939
0.512466
-0.0546249
-0.410272
-0.0259905
0.529983
0.611219
0.5095
0.61166
0.524471
-0.0350408
-0.412915
-0.0517025
0.514566
0.616102
0.513558
0.609352
0.531193
-0.0209851
-0.411457
-0.0644635
0.505424
0.615475
0.512184
0.607064
0.534482
-0.0145572
-0.408284
-0.0650157
0.502855
0.612447
0.51216
0.607816
0.528248
-0.0200789
-0.395056
-0.0428809
0.505932
0.593879
0.482721
0.584721
0.573421
0.142924
0.539712
0.567582
0.457218
0.420909
0.508461
0.546708
0.508417
0.50184
0.533134
0.529795
0.498601
0.500912
0.533013
0.540285
0.513513
0.497582
0.516351
0.53893
0.530434
0.504771
0.50187
0.526068
0.539611
0.521192
0.499541
0.508788
0.534751
0.536598
0.5112
0.498659
0.518858
0.54012
0.529289
0.504025
0.503849
0.528287
0.53956
0.521754
0.503665
0.512101
0.533534
0.536071
0.517097
0.505178
0.518076
0.539112
0.538009
0.513942
0.49889
0.520765
0.554613
0.545536
0.497062
0.487209
0.548857
0.578492
0.511628
0.466293
0.545824
0.607942
0.519604
0.449039
0.541537
0.604879
0.502154
0.467564
0.555439
0.462381
0.246261
0.286995
0.441489
0.323938
0.173772
0.347689
0.513575
0.315049
0.141063
0.355101
0.518669
0.253656
0.0432718
0.296991
0.522362
0.288312
0.0765227
0.318088
0.526988
0.268531
0.0378956
0.284697
0.523059
0.296217
0.0736634
0.306288
0.523847
0.271102
0.0255012
0.263766
0.520327
0.306924
0.0698279
0.289525
0.520734
0.284582
0.0338631
0.261182
0.519349
0.307148
0.0604132
0.276086
0.519409
0.296517
0.046586
0.267167
0.519666
0.303631
0.0530161
0.266206
0.514666
0.30692
0.0643417
0.269612
0.521281
0.34651
0.0988531
0.230686
0.471815
0.441526
0.334897
0.232024
0.281811
0.481331
0.465707
0.125073
-0.0279105
0.300537
0.599013
0.365585
-0.0381762
0.0381871
0.475882
0.577381
0.182386
-0.0818293
0.202335
0.585177
0.462547
0.0284283
-0.032412
0.375601
0.608505
0.298478
-0.0657962
0.0901395
0.520126
0.545373
0.125617
-0.0770818
0.256795
0.600204
0.411538
-0.010796
-0.000616104
0.425076
0.594766
0.242481
-0.0746542
0.142602
0.550914
0.507782
0.0836031
-0.0535092
0.309965
0.601852
0.366074
-0.0240703
0.0408759
0.455596
0.569322
0.205545
-0.0673656
0.174434
0.55094
0.468891
0.0639982
-0.0191095
0.3381
0.541359
0.292385
0.0574051
0.203006
0.430093
0.459468
0.47626
0.467961
0.170077
-0.140204
0.0486267
0.485189
0.597554
0.519905
0.579802
0.469299
-0.0407703
-0.358897
-0.00178223
0.514773
0.590434
0.504486
0.60761
0.503267
-0.0533622
-0.396916
-0.0160419
0.526513
0.60081
0.504345
0.60827
0.511976
-0.0460868
-0.404309
-0.0327777
0.519259
0.604144
0.502323
0.604731
0.525175
-0.0264401
-0.406074
-0.052188
0.510187
0.610019
0.505386
0.603696
0.5333
-0.014248
-0.407154
-0.064143
0.504495
0.613781
0.508363
0.603255
0.536167
-0.00768749
-0.407067
-0.0749337
0.497716
0.625198
0.517017
0.581257
0.531238
0.0833255
-0.296741
-0.130115
0.321644
0.587239
-0.0972074
-0.0717835
0.149356
0.443158
0.350052
-0.159296
-0.358988
0.103213
0.508027
0.187857
-0.357997
-0.254038
0.337021
0.473915
-0.0607588
-0.419216
-0.0347687
0.484542
0.319008
-0.269617
-0.352503
0.20094
0.517521
0.0977119
-0.396329
-0.18529
0.397861
0.433097
-0.13523
-0.410599
0.0411092
0.506943
0.251913
-0.321457
-0.308775
0.26934
0.500444
0.0199925
-0.41408
-0.118099
0.440102
0.380163
-0.202528
-0.389829
0.110554
0.507838
0.176902
-0.358266
-0.256583
0.317068
0.456687
-0.0555812
-0.411773
-0.0568336
0.44162
0.295366
-0.250382
-0.327611
0.156236
0.405315
0.076218
-0.219343
-0.0448982
0.226055
0.267971
0.293668
0.324246
0.124199
-0.0538594
0.169601
0.462908
0.378526
0.240121
0.416703
0.488187
0.108637
-0.172353
0.126286
0.506249
0.428721
0.268912
0.439336
0.508396
0.120393
-0.161084
0.143856
0.517736
0.425045
0.259932
0.437441
0.515182
0.127515
-0.163397
0.135696
0.518869
0.436022
0.264
0.43425
0.522457
0.14255
-0.161702
0.125224
0.515881
0.439611
0.257721
0.423022
0.525986
0.1584
-0.153401
0.122481
0.5133
0.437596
0.248925
0.412428
0.526777
0.170889
-0.145254
0.116204
0.50703
0.447895
0.254606
0.383252
0.510543
0.250646
-0.0471189
0.0408457
0.324904
0.46509
-0.0930012
0.111884
0.348816
0.559237
0.505428
0.164585
0.020662
0.333484
0.615939
0.400097
0.0258032
0.0958512
0.49892
0.591787
0.227886
-0.0153169
0.245839
0.597949
0.485611
0.0866133
0.0304461
0.405794
0.620902
0.336684
0.00163725
0.144465
0.54004
0.564646
0.179837
-0.00710979
0.298697
0.614895
0.442639
0.0534256
0.0611149
0.453653
0.61166
0.284998
-0.0117605
0.189066
0.570274
0.529928
0.131364
0.00318303
0.34644
0.618432
0.389626
0.0221351
0.0956113
0.492386
0.585241
0.228824
-0.0112783
0.242342
0.582655
0.467228
0.0891224
0.0547037
0.395702
0.547762
0.313382
0.138087
0.253119
0.343076
0.273086
0.317312
0.461512
0.440974
0.402331
0.532804
0.462456
-0.0169105
-0.293456
0.0806397
0.545434
0.532648
0.398375
0.5322
0.5107
0.0244129
-0.302797
0.044723
0.526554
0.539704
0.414894
0.544295
0.511894
0.0162716
-0.312863
0.0380041
0.525261
0.542246
0.415457
0.543758
0.519862
0.0294751
-0.3133
0.0225662
0.516331
0.545893
0.41644
0.541291
0.527548
0.0408819
-0.318225
0.00544262
0.509646
0.552593
0.42119
0.541568
0.531802
0.0454368
-0.32325
-0.0051133
0.506102
0.558329
0.425999
0.537922
0.528821
0.0572004
-0.309358
-0.0189152
0.482768
0.58137
0.452984
0.457503
0.457028
0.299782
0.30653
0.476293
0.453488
0.409462
0.486492
0.55649
0.534697
0.498811
0.503262
0.524072
0.534305
0.527216
0.509776
0.504406
0.521977
0.536826
0.523724
0.502535
0.507919
0.531641
0.535454
0.513323
0.500769
0.517712
0.537282
0.528624
0.505336
0.504019
0.526841
0.537997
0.519909
0.501162
0.51126
0.534081
0.533748
0.511362
0.502414
0.520355
0.536829
0.526715
0.506573
0.507584
0.527671
0.535977
0.520584
0.506304
0.515025
0.533118
0.532903
0.515857
0.508511
0.521362
0.53641
0.533397
0.514799
0.500366
0.514384
0.546826
0.540419
0.478045
0.461201
0.553415
0.588758
0.42955
0.297635
0.438461
0.607842
0.52039
0.439446
0.570616
0.491241
-0.00845681
-0.290322
0.0866521
0.549242
0.539001
0.417543
0.555924
0.518631
0.0132648
-0.317114
0.0392033
0.527945
0.542345
0.417668
0.547807
0.51481
0.0171201
-0.31358
0.0372554
0.52505
0.542288
0.416063
0.544868
0.519701
0.0269307
-0.316585
0.0207392
0.516085
0.545792
0.415424
0.539645
0.526858
0.0430964
-0.313008
0.0104174
0.509782
0.546055
0.410837
0.533187
0.530919
0.0546277
-0.306897
0.0086273
0.505613
0.542239
0.407507
0.529314
0.527578
0.0597911
-0.292256
0.0122164
0.485866
0.52181
0.388577
0.481052
0.532128
0.293766
0.497907
0.546016
0.196033
-0.136331
0.0456864
0.493355
0.573392
0.195446
-0.0653108
0.186867
0.568116
0.485545
0.0609237
-0.0404647
0.345569
0.610682
0.332915
-0.0496415
0.0691949
0.501926
0.563997
0.157232
-0.0758868
0.232289
0.595145
0.440279
0.011751
-0.0151873
0.401646
0.605027
0.274167
-0.0695213
0.115621
0.53762
0.531324
0.107052
-0.06627
0.284215
0.606217
0.393133
-0.0182652
0.0203407
0.447624
0.590267
0.224578
-0.071545
0.168593
0.565178
0.492457
0.0671098
-0.0397188
0.336934
0.60163
0.341512
-0.0325553
0.0562141
0.461606
0.560353
0.207014
-0.0720791
0.124411
0.492175
0.490262
0.179588
0.119425
0.425365
0.524963
0.160502
-0.0844567
0.203896
0.520451
0.400895
0.253938
0.443236
0.504076
0.110436
-0.153849
0.164133
0.527405
0.418321
0.250894
0.435021
0.513529
0.123609
-0.15968
0.1485
0.524387
0.429008
0.260336
0.437492
0.516475
0.12866
-0.16202
0.138474
0.520434
0.433711
0.25992
0.431726
0.52175
0.142194
-0.162498
0.124051
0.515594
0.442893
0.265267
0.43001
0.525443
0.148426
-0.167725
0.111555
0.512222
0.450135
0.272567
0.432902
0.524461
0.144387
-0.170331
0.111488
0.507887
0.443619
0.276117
0.440099
0.513338
0.124189
-0.164509
0.13975
0.522596
0.415064
0.298915
0.454015
0.065756
-0.370929
-0.192685
0.353146
0.456709
-0.0428891
-0.3966
-0.0584781
0.460324
0.349528
-0.229137
-0.36795
0.157796
0.518503
0.139543
-0.381517
-0.219226
0.370323
0.454662
-0.0995476
-0.416945
0.00313717
0.497662
0.287008
-0.296371
-0.332968
0.234722
0.512087
0.0620565
-0.40627
-0.154957
0.419944
0.412466
-0.165638
-0.403475
0.0734379
0.513345
0.222968
-0.340029
-0.288456
0.296032
0.491486
-0.0105692
-0.418027
-0.0884917
0.456805
0.356711
-0.22895
-0.375189
0.144756
0.50821
0.147596
-0.364468
-0.232014
0.328721
0.453541
-0.0326091
-0.385099
-0.0937014
0.380039
0.352601
-0.0150463
-0.0225319
0.367539
0.437145
-0.0509899
-0.369538
0.00153922
0.523697
0.592547
0.500696
0.598242
0.485004
-0.0719355
-0.401477
-0.00952996
0.530149
0.599301
0.505062
0.611176
0.508008
-0.0566518
-0.405982
-0.0208192
0.528493
0.603752
0.50439
0.608227
0.513927
-0.0453361
-0.405552
-0.03257
0.521576
0.606851
0.504901
0.606188
0.524281
-0.0278701
-0.404938
-0.0492198
0.511486
0.60906
0.504241
0.602588
0.531733
-0.0138435
-0.402491
-0.0584834
0.505038
0.608593
0.503379
0.601218
0.532385
-0.0117013
-0.39736
-0.0522206
0.502682
0.598537
0.50132
0.606907
0.526619
-0.0191816
-0.36235
0.0210158
0.518277
0.445126
0.100214
0.476919
0.343002
0.0693547
0.170058
0.502477
0.55242
0.228037
0.00725437
0.234201
0.576574
0.501674
0.112696
0.018025
0.374172
0.620156
0.362091
0.00589968
0.116437
0.519476
0.577198
0.198447
-0.0181733
0.269043
0.606767
0.463021
0.065152
0.0403175
0.427529
0.616995
0.310602
-0.00881643
0.161993
0.554025
0.549673
0.155666
-0.00729067
0.31753
0.618216
0.420432
0.0352108
0.0695397
0.469471
0.604064
0.259966
-0.0203818
0.20543
0.580358
0.512132
0.110376
0.0109182
0.367906
0.616595
0.371697
0.0266357
0.119055
0.49746
0.580937
0.256969
0.0288891
0.239416
0.566245
0.51356
0.181665
0.112664
0.397135
0.517933
0.234908
0.0347813
0.277782
0.496473
0.27019
0.0600007
0.296136
0.511463
0.278855
0.0717405
0.311637
0.515677
0.260958
0.0408964
0.291177
0.520235
0.284529
0.0674553
0.307789
0.519437
0.263144
0.0320719
0.279749
0.521003
0.294132
0.0693651
0.301493
0.520485
0.271604
0.030851
0.269072
0.520173
0.303912
0.0703689
0.292994
0.520584
0.278953
0.0270271
0.256581
0.519093
0.314929
0.0764002
0.290946
0.520401
0.280068
0.0222728
0.249377
0.517308
0.318997
0.0833942
0.296949
0.520081
0.276984
0.0256917
0.252784
0.50689
0.307313
0.0984517
0.332725
0.547544
0.301032
0.179056
0.463836
0.508789
0.517092
0.557608
0.525144
0.466392
0.490946
0.546587
0.536598
0.496032
0.500066
0.53231
0.536863
0.513831
0.503452
0.518828
0.534158
0.52711
0.50922
0.507461
0.524577
0.534355
0.521088
0.504994
0.511683
0.531154
0.532503
0.513152
0.503677
0.519263
0.535378
0.526583
0.506742
0.507027
0.526861
0.535079
0.519014
0.504237
0.513814
0.532235
0.530666
0.512378
0.506284
0.521147
0.533708
0.52512
0.508609
0.509169
0.527143
0.535685
0.518805
0.500982
0.514769
0.543135
0.536221
0.500256
0.497759
0.534924
0.547308
0.530402
0.53853
0.521988
0.411456
0.3332
0.424968
0.547359
0.521397
0.498225
0.598742
0.465185
-0.0693476
-0.376949
0.00673351
0.532957
0.604475
0.51706
0.616682
0.500094
-0.066865
-0.40744
-0.0167684
0.531044
0.607331
0.513598
0.616121
0.509845
-0.0578067
-0.412319
-0.0294388
0.52656
0.611124
0.513205
0.613457
0.518573
-0.0432151
-0.413628
-0.0466255
0.516455
0.613862
0.513295
0.6109
0.528526
-0.0270432
-0.413904
-0.0621794
0.507744
0.616632
0.514284
0.609363
0.534226
-0.0181815
-0.41398
-0.069447
0.503807
0.617907
0.515726
0.608687
0.534356
-0.0115147
-0.404266
-0.0731647
0.486808
0.613292
0.521367
0.590101
0.543912
0.192221
0.36729
0.246206
0.216148
0.431332
0.475093
0.139188
-0.0396892
0.288903
0.601565
0.369347
-0.0366012
0.0432618
0.481137
0.57922
0.186721
-0.0716716
0.211173
0.587742
0.464989
0.0369826
-0.022022
0.380881
0.610741
0.304678
-0.0556861
0.0975038
0.522969
0.549928
0.135369
-0.0678832
0.26018
0.602644
0.420024
-0.000163643
0.0036466
0.425334
0.6008
0.253792
-0.0689082
0.141121
0.552939
0.517938
0.091938
-0.0535948
0.310175
0.610172
0.374438
-0.0256842
0.0392469
0.466889
0.583243
0.202604
-0.0769397
0.186015
0.575107
0.47051
0.037671
-0.0361575
0.353803
0.577171
0.307717
0.00626771
0.094802
0.347123
0.424865
0.374798
0.328222
0.280629
0.32008
0.491606
0.47318
0.101314
-0.111896
0.195973
0.514553
0.38644
0.230591
0.426063
0.510196
0.136129
-0.128133
0.17621
0.522881
0.40093
0.228991
0.419294
0.515493
0.147301
-0.127067
0.169221
0.522027
0.405577
0.226221
0.411881
0.519381
0.159455
-0.126756
0.157604
0.518865
0.412601
0.22519
0.40361
0.523164
0.173481
-0.123631
0.148676
0.515567
0.415833
0.221232
0.395272
0.525171
0.183808
-0.119281
0.145654
0.514468
0.417609
0.219268
0.389184
0.523844
0.193977
-0.109879
0.133924
0.500959
0.450455
0.271232
0.362107
0.457091
0.310384
0.418757
0.110812
-0.00900074
0.263923
0.335828
-0.0987159
-0.335059
0.0946223
0.501393
0.184725
-0.361577
-0.252958
0.340426
0.472267
-0.0655036
-0.420106
-0.0321373
0.485216
0.316662
-0.271417
-0.35213
0.201684
0.517289
0.0971383
-0.396866
-0.186244
0.397209
0.434266
-0.13341
-0.411633
0.0376374
0.506765
0.257117
-0.318123
-0.313204
0.264151
0.504827
0.0296926
-0.413059
-0.126053
0.438629
0.391445
-0.193189
-0.394303
0.104512
0.5173
0.194063
-0.355999
-0.266847
0.320853
0.480973
-0.0392294
-0.419077
-0.0593856
0.468229
0.327271
-0.250527
-0.340806
0.186797
0.480695
0.102424
-0.314735
-0.152086
0.307679
0.512722
0.390873
0.123363
-0.139134
-0.154261
0.186839
0.515693
0.506665
0.447412
0.578496
0.486405
-0.0353647
-0.334312
0.0464908
0.533748
0.549462
0.437236
0.56527
0.507704
-0.0100007
-0.336902
0.0292296
0.528346
0.555174
0.438202
0.562578
0.514228
0.00131807
-0.338741
0.0152501
0.521844
0.55967
0.438632
0.559314
0.523142
0.01717
-0.339489
-0.00158047
0.513169
0.564302
0.440171
0.556809
0.530238
0.0288366
-0.341325
-0.0143188
0.507692
0.568327
0.442084
0.555515
0.533348
0.0347665
-0.341056
-0.0206183
0.503724
0.573886
0.446585
0.540546
0.522772
0.0871178
-0.253649
-0.0319428
0.378086
0.527085
0.311728
0.314679
0.271908
0.444006
0.509544
0.212618
0.0299528
0.321868
0.612676
0.395989
0.0133557
0.0869997
0.498099
0.588234
0.215927
-0.0279387
0.240407
0.596554
0.479897
0.0751702
0.0202094
0.401673
0.618795
0.329765
-0.00971353
0.135436
0.536618
0.562126
0.172333
-0.0184894
0.290135
0.612305
0.441129
0.0463985
0.0496234
0.44578
0.611263
0.285485
-0.0186353
0.177844
0.565463
0.53361
0.132402
-0.00622185
0.335903
0.619865
0.398639
0.0208756
0.0816423
0.485474
0.596602
0.240613
-0.0191541
0.228622
0.590457
0.493475
0.101639
0.047454
0.407178
0.596978
0.341285
0.0805321
0.195188
0.467291
0.576234
0.494884
0.254889
-0.0582693
-0.124242
0.20542
0.524178
0.490384
0.414631
0.55559
0.494203
0.00295922
-0.284939
0.080405
0.533668
0.516652
0.392459
0.535352
0.509737
0.0229453
-0.291241
0.0614811
0.527832
0.521701
0.391484
0.530177
0.51521
0.0354612
-0.290891
0.0490519
0.521759
0.525684
0.390553
0.525023
0.522581
0.0510728
-0.290356
0.0341698
0.514169
0.529296
0.389075
0.519316
0.528712
0.0651148
-0.287656
0.0253153
0.509213
0.530066
0.386479
0.51505
0.53076
0.0713941
-0.285029
0.0220481
0.503982
0.529846
0.390941
0.509088
0.517846
0.0927034
-0.234736
0.00715978
0.407689
0.511327
0.179844
0.563788
0.560307
0.490275
0.542284
0.563506
0.512645
0.494386
0.521407
0.534709
0.526908
0.520258
0.515383
0.512651
0.520554
0.529474
0.522705
0.509665
0.512432
0.527161
0.529796
0.516007
0.508044
0.518716
0.531205
0.525747
0.510731
0.509754
0.524636
0.532078
0.520068
0.507315
0.5141
0.529949
0.529777
0.513666
0.50699
0.520342
0.532779
0.524737
0.508797
0.509979
0.526478
0.532339
0.518212
0.506496
0.51599
0.531719
0.52865
0.511982
0.508249
0.522612
0.532893
0.524937
0.510145
0.507118
0.522214
0.536899
0.517444
0.476677
0.490351
0.562355
0.542751
0.3748
0.293712
0.439176
0.536722
0.405575
0.343436
0.508855
0.488504
0.076263
-0.166876
0.157239
0.524732
0.4414
0.300258
0.473962
0.509945
0.0884911
-0.192585
0.134364
0.526964
0.448101
0.293635
0.464888
0.51431
0.0990551
-0.193721
0.123469
0.523713
0.454148
0.294255
0.459936
0.519053
0.110917
-0.194912
0.109374
0.518421
0.46087
0.295052
0.454387
0.52438
0.123521
-0.19626
0.0954724
0.513403
0.467446
0.297783
0.451866
0.527147
0.128975
-0.198134
0.0889582
0.510837
0.468871
0.299517
0.451624
0.522095
0.124992
-0.187954
0.103682
0.504633
0.450423
0.288675
0.42431
0.487988
0.197459
0.216875
0.565187
0.356401
0.0112916
0.108424
0.484315
0.555655
0.207579
-0.0357313
0.206504
0.57136
0.486296
0.0711537
-0.0243301
0.356127
0.613118
0.33665
-0.0382431
0.0818118
0.507489
0.565932
0.164599
-0.063384
0.24124
0.598035
0.444616
0.0223528
-0.00406386
0.406817
0.607916
0.282197
-0.0580631
0.122615
0.539845
0.536686
0.11776
-0.0577349
0.286432
0.608476
0.401272
-0.0091046
0.0235136
0.447838
0.595425
0.233486
-0.0677561
0.166502
0.566734
0.5017
0.0742732
-0.0420714
0.333725
0.608245
0.351434
-0.0322006
0.0533021
0.466877
0.560232
0.183278
-0.0881952
0.162708
0.544389
0.43307
-0.0533383
-0.187346
0.242533
0.618999
0.55294
0.447211
0.57447
0.481826
-0.0566537
-0.378954
0.00410795
0.532326
0.59464
0.497867
0.603171
0.500556
-0.0564471
-0.392621
-0.00395854
0.532744
0.594717
0.494881
0.603262
0.509324
-0.0462187
-0.394485
-0.0158989
0.526589
0.597334
0.494298
0.600324
0.518062
-0.0307115
-0.394547
-0.0321052
0.517217
0.600437
0.494018
0.596885
0.527684
-0.0137323
-0.393625
-0.047018
0.508363
0.602296
0.49358
0.594184
0.532997
-0.00421294
-0.391265
-0.0511479
0.504355
0.599997
0.494216
0.596563
0.528366
-0.0133195
-0.383426
-0.0277617
0.506379
0.572914
0.473836
0.591638
0.522723
-0.00472896
0.447374
0.525246
0.0876424
-0.377078
-0.210469
0.344307
0.463258
-0.0354486
-0.397699
-0.0614176
0.459392
0.346267
-0.233507
-0.367213
0.161874
0.518183
0.134595
-0.383796
-0.216482
0.372526
0.452631
-0.102569
-0.417063
0.004796
0.497922
0.285593
-0.297529
-0.333241
0.234576
0.512125
0.0626343
-0.406463
-0.15696
0.418493
0.414345
-0.162874
-0.404752
0.0693997
0.513237
0.227998
-0.337318
-0.29247
0.29204
0.495461
-0.00282735
-0.417551
-0.0950456
0.455983
0.366944
-0.220601
-0.380042
0.137959
0.516996
0.164892
-0.361777
-0.242053
0.330621
0.468513
-0.0309882
-0.393551
-0.0751631
0.413911
0.320333
-0.169342
-0.230562
0.265464
0.544478
0.232574
-0.0277948
0.241898
0.517748
0.319724
0.109741
0.330805
0.51404
0.233979
-0.00274573
0.258382
0.518399
0.31221
0.108569
0.337865
0.517556
0.231601
-0.00474851
0.258685
0.521035
0.31499
0.10568
0.331759
0.519127
0.239096
-0.00602719
0.249186
0.520448
0.323918
0.106171
0.323424
0.520601
0.249619
-0.00689051
0.237404
0.51901
0.333732
0.107819
0.316178
0.52133
0.257214
-0.00831408
0.228534
0.517431
0.339782
0.111299
0.31562
0.520209
0.256152
-0.00661861
0.232715
0.513875
0.327721
0.109873
0.327473
0.518614
0.242453
0.00588986
0.266866
0.506362
0.216673
0.532925
0.586684
0.258536
-0.0631268
0.0875885
0.498228
0.577994
0.222938
-0.0289048
0.20856
0.573969
0.497363
0.0943215
0.000861198
0.369457
0.61813
0.351263
-0.00940356
0.107469
0.517325
0.572689
0.186763
-0.0311276
0.262389
0.604649
0.457053
0.0527692
0.0285381
0.422378
0.614633
0.303397
-0.02104
0.151891
0.550051
0.547238
0.148331
-0.0186793
0.309119
0.615926
0.418959
0.0284501
0.0594288
0.463176
0.603765
0.259954
-0.0259585
0.196755
0.576546
0.51511
0.111424
0.00306277
0.359219
0.619155
0.379706
0.0216868
0.102371
0.492594
0.596246
0.268326
0.0133315
0.20578
0.539357
0.520917
0.239236
0.210496
0.497705
0.509506
-0.00628827
-0.361552
-0.00549887
0.531342
0.61242
0.515175
0.609741
0.502093
-0.0634697
-0.412807
-0.0226716
0.532868
0.613396
0.519634
0.619095
0.504916
-0.0681968
-0.417161
-0.0255604
0.530866
0.613062
0.518216
0.618406
0.512921
-0.0561905
-0.418223
-0.039952
0.522451
0.615764
0.518048
0.615663
0.523142
-0.038876
-0.418338
-0.0575284
0.51207
0.618558
0.518302
0.613103
0.531802
-0.0246156
-0.41785
-0.0695062
0.505065
0.619939
0.519309
0.612603
0.533245
-0.0221431
-0.414775
-0.0664897
0.503266
0.615332
0.521585
0.616823
0.526375
-0.0220827
-0.384405
-0.0400094
0.480271
0.538466
0.238448
0.476991
0.513024
0.484068
0.505252
0.515961
0.496251
0.499935
0.522519
0.523982
0.512123
0.513986
0.524507
0.525354
0.517687
0.514767
0.520445
0.526022
0.523147
0.515552
0.514595
0.522329
0.526958
0.520646
0.512824
0.516081
0.525783
0.526541
0.516627
0.511506
0.51969
0.528617
0.523941
0.51264
0.5126
0.524184
0.529154
0.519474
0.51033
0.51625
0.528068
0.527156
0.514704
0.510108
0.520848
0.53052
0.523614
0.509858
0.510714
0.526385
0.532498
0.516345
0.501676
0.515382
0.538282
0.52884
0.499182
0.505122
0.540182
0.5343
0.49385
0.504222
0.548929
0.520997
0.469204
0.52011
0.496396
0.192607
-0.0247229
0.217467
0.496935
0.359051
0.193012
0.393736
0.512041
0.171111
-0.0872709
0.201282
0.521636
0.373513
0.192356
0.395734
0.51487
0.168348
-0.0921508
0.198466
0.52314
0.377984
0.19294
0.392536
0.517902
0.176728
-0.09282
0.188528
0.520841
0.384874
0.192218
0.38442
0.520989
0.189456
-0.0921874
0.176614
0.517673
0.392079
0.19147
0.376406
0.523498
0.200547
-0.090562
0.16894
0.515533
0.395894
0.190966
0.372477
0.52364
0.204394
-0.0878905
0.168201
0.51467
0.403972
0.207341
0.377077
0.511478
0.208459
-0.0666728
0.142328
0.468269
0.491392
-0.0702017
0.127074
0.36042
0.566792
0.468565
0.0932055
-0.0301248
0.319774
0.607903
0.372003
-0.0139243
0.0678246
0.488406
0.579919
0.197588
-0.0534064