# vtk DataFile Version 3.0
PFC-RG simulation results
ASCII
DATASET STRUCTURED_POINTS
DIMENSIONS 128 128 1
ORIGIN 0 0 0
SPACING 1 1 1
POINT_DATA 16384
SCALARS psi double
lOOKUP_TABLE default
0.288302
0.287805
0.282981
0.279497
0.282839
0.28925
0.289961
0.283865
0.279666
0.283237
0.288735
0.28732
0.28058
0.278241
0.28372
0.289689
0.289869
0.288172
0.291483
0.298589
0.302842
0.303201
0.30532
0.311528
0.316634
0.316346
0.31435
0.316623
0.322199
0.325069
0.323865
0.323755
0.327617
0.330592
0.327144
0.320259
0.318109
0.321874
0.323088
0.316028
0.307153
0.306056
0.310447
0.308821
0.298107
0.289241
0.291106
0.297269
0.296286
0.289498
0.288487
0.296701
0.304398
0.304209
0.302079
0.306919
0.316347
0.320711
0.317821
0.315292
0.318441
0.323353
0.324465
0.323358
0.325314
0.329835
0.330123
0.32277
0.313662
0.311238
0.31629
0.322051
0.322896
0.318431
0.30936
0.295553
0.281293
0.276904
0.288413
0.307021
0.31531
0.305168
0.285115
0.269084
0.26343
0.267381
0.279745
0.297917
0.312395
0.310813
0.291421
0.268602
0.260162
0.269973
0.286757
0.298455
0.301741
0.297475
0.285681
0.270244
0.262155
0.270405
0.290869
0.308836
0.312306
0.300722
0.282421
0.267274
0.262359
0.270621
0.288704
0.306029
0.310654
0.299222
0.28049
0.267522
0.266669
0.275006
0.286179
0.295005
0.29758
0.292085
0.281973
0.27553
0.278232
0.286039
0.290008
0.287338
0.29163
0.288276
0.280913
0.279726
0.286184
0.290643
0.286559
0.280259
0.281327
0.28803
0.290071
0.284612
0.2809
0.286257
0.294935
0.296765
0.29203
0.289986
0.294366
0.298515
0.296442
0.29153
0.290186
0.291967
0.291446
0.287336
0.284301
0.285962
0.290142
0.292047
0.289839
0.286203
0.285184
0.287244
0.287887
0.283466
0.277854
0.278588
0.285388
0.288952
0.284735
0.281034
0.286619
0.295982
0.296561
0.288052
0.283178
0.287929
0.29244
0.287031
0.277717
0.276501
0.282401
0.283565
0.276617
0.272167
0.278104
0.287243
0.288013
0.280992
0.276713
0.279961
0.28462
0.284499
0.281666
0.280799
0.281202
0.279832
0.278712
0.282722
0.290595
0.29398
0.287054
0.273459
0.262389
0.260827
0.270359
0.287122
0.301753
0.303101
0.287681
0.265565
0.253086
0.258683
0.27762
0.29898
0.313488
0.315087
0.301475
0.277541
0.256016
0.250084
0.262781
0.284124
0.300844
0.308722
0.311917
0.311271
0.301265
0.281153
0.261202
0.253178
0.259896
0.276775
0.297338
0.313461
0.315895
0.300864
0.276227
0.257909
0.257721
0.274134
0.295102
0.308395
0.308482
0.296759
0.27959
0.266645
0.266415
0.278631
0.292608
0.297067
0.291272
0.283899
0.281564
0.282391
0.282351
0.282761
0.287667
0.284083
0.282094
0.286488
0.290521
0.286457
0.279205
0.279986
0.288567
0.29249
0.285956
0.27925
0.283117
0.291831
0.291512
0.281013
0.273054
0.274486
0.276808
0.270722
0.260445
0.255687
0.256053
0.253321
0.246064
0.241604
0.243179
0.244923
0.242141
0.238047
0.236144
0.23394
0.229876
0.228938
0.233984
0.238168
0.235115
0.231196
0.236739
0.248322
0.25252
0.247416
0.246918
0.259087
0.272564
0.273645
0.267407
0.269254
0.280383
0.286194
0.279569
0.271589
0.273302
0.278487
0.27454
0.263119
0.257634
0.262458
0.266937
0.262524
0.255327
0.255366
0.260718
0.261025
0.25357
0.247092
0.249219
0.25732
0.264011
0.26606
0.264503
0.260193
0.254154
0.251116
0.257815
0.275412
0.295086
0.303484
0.293784
0.272166
0.254046
0.253069
0.271163
0.297328
0.315957
0.316954
0.300013
0.273817
0.253018
0.250905
0.269445
0.296793
0.31561
0.313647
0.291211
0.26396
0.253414
0.267347
0.292724
0.310889
0.312755
0.298245
0.273234
0.251735
0.250005
0.271157
0.300222
0.317366
0.313295
0.292845
0.268763
0.253939
0.256264
0.274916
0.29872
0.31191
0.306385
0.288837
0.273927
0.270272
0.275215
0.282443
0.289079
0.293617
0.2927
0.285186
0.277441
0.278151
0.280857
0.278071
0.284804
0.293382
0.290907
0.279423
0.275372
0.285425
0.294922
0.289254
0.276675
0.2761
0.287442
0.291107
0.278499
0.265909
0.269618
0.281283
0.281957
0.271654
0.267868
0.277121
0.285672
0.282617
0.276762
0.281034
0.291172
0.292882
0.2847
0.279764
0.284675
0.289896
0.286427
0.280963
0.284756
0.294241
0.295405
0.286041
0.280345
0.286969
0.294412
0.288208
0.274368
0.271469
0.282097
0.288434
0.28008
0.270585
0.276157
0.290092
0.293396
0.284433
0.280609
0.290309
0.299962
0.295621
0.284098
0.281541
0.289355
0.294608
0.291181
0.287157
0.289414
0.29262
0.289548
0.284118
0.285688
0.294011
0.298192
0.291046
0.278535
0.272588
0.278388
0.291669
0.305073
0.312241
0.307666
0.28979
0.266912
0.255158
0.265624
0.293252
0.319535
0.326738
0.310611
0.281111
0.253446
0.240801
0.251476
0.28293
0.317587
0.334667
0.327871
0.304247
0.271936
0.241348
0.228902
0.243051
0.273371
0.304006
0.326707
0.334228
0.318315
0.283852
0.25171
0.240497
0.253241
0.281192
0.310328
0.325019
0.315839
0.288075
0.260031
0.249681
0.260855
0.282404
0.300032
0.306402
0.301248
0.287902
0.273511
0.268291
0.276793
0.290383
0.295311
0.288798
0.281419
0.282056
0.278381
0.277476
0.287858
0.293264
0.28477
0.275528
0.281037
0.293794
0.293397
0.279007
0.272572
0.284831
0.297143
0.290235
0.275767
0.279233
0.299948
0.31204
0.305124
0.299296
0.311555
0.329384
0.332925
0.326513
0.328703
0.341311
0.348835
0.344682
0.339543
0.343214
0.352191
0.357629
0.355868
0.349694
0.345617
0.34828
0.352817
0.348471
0.335431
0.328502
0.334812
0.339413
0.327278
0.309155
0.306152
0.315303
0.313583
0.295712
0.283644
0.291326
0.302294
0.296577
0.282812
0.283889
0.300275
0.309616
0.301554
0.292132
0.297484
0.310064
0.3125
0.304078
0.299437
0.30551
0.313396
0.313952
0.309917
0.307724
0.305809
0.299277
0.292031
0.294389
0.307645
0.318959
0.314953
0.295464
0.272007
0.257956
0.261809
0.283257
0.310974
0.327052
0.318591
0.288488
0.256092
0.243649
0.258231
0.288676
0.318124
0.331125
0.315336
0.276264
0.245666
0.251063
0.281917
0.307756
0.315596
0.307017
0.282084
0.252704
0.24704
0.27569
0.313773
0.330905
0.319542
0.289627
0.257603
0.243326
0.25818
0.291878
0.320392
0.326569
0.309971
0.282466
0.259211
0.251691
0.263389
0.286687
0.305181
0.305723
0.29115
0.277469
0.275572
0.28054
0.28312
0.283951
0.288206
0.292551
0.281015
0.2853
0.291175
0.285964
0.276119
0.278924
0.293204
0.297451
0.282965
0.270816
0.281286
0.300554
0.29997
0.281725
0.277549
0.29827
0.314232
0.301592
0.281442
0.286022
0.305627
0.30491
0.282604
0.273519
0.288804
0.297545
0.281705
0.267751
0.279319
0.295784
0.290101
0.276056
0.279625
0.289506
0.279676
0.261271
0.264963
0.284071
0.284025
0.264185
0.26111
0.285301
0.301758
0.288533
0.272748
0.284015
0.305585
0.303656
0.282868
0.276572
0.291764
0.299836
0.284684
0.267834
0.272738
0.28881
0.290777
0.278239
0.272869
0.282311
0.289713
0.282347
0.27169
0.274765
0.287883
0.29268
0.282919
0.271526
0.270939
0.278913
0.287212
0.292954
0.294892
0.287916
0.27041
0.252545
0.249845
0.268732
0.299547
0.322172
0.320297
0.293874
0.258378
0.234247
0.238002
0.272834
0.3195
0.347783
0.343723
0.312689
0.262193
0.210085
0.196198
0.24208
0.311911
0.355532
0.365785
0.353778
0.311029
0.24361
0.1984
0.210381
0.260732
0.311824
0.344272
0.347911
0.317881
0.271029
0.238273
0.236381
0.26075
0.296515
0.324466
0.327748
0.304984
0.273562
0.255413
0.25917
0.275948
0.291224
0.298115
0.297947
0.292075
0.280909
0.271627
0.275134
0.289357
0.297076
0.284444
0.295322
0.292542
0.277414
0.2728
0.288177
0.301036
0.28978
0.269862
0.272913
0.296378
0.303831
0.28127
0.262121
0.276016
0.298531
0.286076
0.246831
0.232773
0.257911
0.272329
0.240669
0.202434
0.210853
0.244262
0.238853
0.195564
0.182468
0.221197
0.246271
0.212124
0.171163
0.187492
0.229274
0.223149
0.178531
0.170932
0.214928
0.2417
0.21441
0.186264
0.210354
0.255225
0.259893
0.230883
0.226222
0.261307
0.289046
0.277486
0.256532
0.265655
0.292509
0.296872
0.274569
0.260328
0.27208
0.287064
0.281312
0.265229
0.262831
0.273707
0.277543
0.268432
0.262023
0.267535
0.273063
0.266966
0.258158
0.262463
0.278402
0.289246
0.284197
0.268058
0.253613
0.251642
0.265631
0.290342
0.314071
0.322464
0.305081
0.267714
0.235943
0.23399
0.262045
0.302524
0.334965
0.337138
0.300312
0.2543
0.240567
0.257513
0.277309
0.299318
0.32523
0.318443
0.266177
0.232147
0.265483
0.317947
0.325624
0.300234
0.277769
0.257206
0.240116
0.254116
0.29998
0.336234
0.333649
0.300938
0.259953
0.231788
0.234926
0.268188
0.305881
0.32344
0.317038
0.296502
0.27343
0.258946
0.261589
0.279674
0.298746
0.302768
0.290172
0.276709
0.277279
0.28666
0.288516
0.287361
0.297954
0.287704
0.273183
0.279289
0.297454
0.296377
0.274024
0.265574
0.287609
0.306622
0.28906
0.257872
0.26079
0.293789
0.302693
0.267825
0.23971
0.263402
0.306285
0.305611
0.265546
0.252036
0.290757
0.326122
0.306685
0.265822
0.271331
0.319222
0.336922
0.294981
0.255553
0.278596
0.329019
0.330757
0.283656
0.261476
0.297339
0.335027
0.316887
0.270204
0.262921
0.300359
0.319907
0.288249
0.250916
0.260584
0.29739
0.30304
0.271462
0.254407
0.278667
0.307321
0.300479
0.274829
0.272238
0.294213
0.304676
0.289104
0.274168
0.282782
0.300227
0.300748
0.28624
0.278108
0.283566
0.290929
0.29251
0.293028
0.295402
0.293107
0.28109
0.267291
0.267965
0.289651
0.317394
0.327295
0.310902
0.278997
0.246723
0.230574
0.24856
0.297683
0.343471
0.355438
0.331795
0.277719
0.207614
0.175425
0.227585
0.322536
0.381514
0.394922
0.380855
0.30564
0.172701
0.100844
0.173646
0.306305
0.380512
0.394243
0.3814
0.322854
0.227624
0.175058
0.207532
0.278512
0.332893
0.35542
0.341698
0.29518
0.246523
0.228177
0.242316
0.273431
0.306597
0.324198
0.313103
0.283707
0.263311
0.265615
0.279185
0.287794
0.289458
0.291015
0.292718
0.287228
0.275494
0.292013
0.290075
0.276669
0.275477
0.292525
0.300672
0.282045
0.263488
0.278227
0.307751
0.304493
0.269701
0.259059
0.295623
0.327842
0.309524
0.27756
0.295152
0.347401
0.363697
0.333735
0.322556
0.359447
0.391378
0.377511
0.356094
0.371352
0.397925
0.393609
0.375112
0.380853
0.399433
0.396605
0.381712
0.38631
0.399423
0.387451
0.363324
0.367852
0.390671
0.382006
0.343655
0.332149
0.359393
0.367406
0.327667
0.29259
0.307753
0.335416
0.318634
0.275275
0.266619
0.298388
0.316233
0.294666
0.272109
0.283779
0.307849
0.306359
0.285954
0.281997
0.300364
0.311832
0.30033
0.285111
0.288776
0.305773
0.313594
0.302916
0.285808
0.277833
0.281287
0.290134
0.303008
0.317635
0.318058
0.290426
0.250877
0.232151
0.245349
0.279951
0.323985
0.353426
0.336613
0.285245
0.250945
0.246219
0.245114
0.263708
0.323649
0.358455
0.307855
0.252669
0.281531
0.318827
0.275624
0.233111
0.276904
0.319738
0.281063
0.251719
0.307705
0.35894
0.323723
0.263131
0.244733
0.246815
0.252251
0.286425
0.33753
0.3547
0.325648
0.280722
0.244321
0.230582
0.249861
0.288097
0.312521
0.310666
0.297414
0.284712
0.272043
0.26497
0.274636
0.295075
0.30338
0.289343
0.271613
0.296315
0.277367
0.267869
0.284484
0.303713
0.294064
0.267921
0.268515
0.300701
0.314967
0.284055
0.255245
0.280852
0.327209
0.319775
0.268041
0.260983
0.318927
0.344838
0.281817
0.225089
0.273582
0.349003
0.311419
0.206558
0.209406
0.324091
0.355969
0.238144
0.162217
0.263008
0.380485
0.318598
0.174125
0.177455
0.311526
0.348768
0.233386
0.1611
0.24342
0.336673
0.29881
0.214559
0.230454
0.314074
0.331535
0.27335
0.249223
0.296463
0.332122
0.300875
0.25786
0.268156
0.305786
0.307249
0.274092
0.26052
0.283026
0.301603
0.288917
0.268367
0.27025
0.286552
0.290636
0.280034
0.275673
0.285807
0.292455
0.280004
0.262503
0.265973
0.289892
0.307927
0.304979
0.287827
0.262715
0.236469
0.233609
0.270076
0.319468
0.345699
0.342208
0.304698
0.228702
0.170113
0.206926
0.309095
0.375991
0.397327
0.404884
0.329714
0.143447
0.0330774
0.155489
0.361132
0.439385
0.43373
0.439777
0.361261
0.155162
0.0329642
0.143979
0.330273
0.40477
0.39673
0.37534
0.308341
0.206017
0.169615
0.229411
0.306573
0.344293
0.347425
0.321601
0.273902
0.238557
0.240067
0.26481
0.29149
0.310905
0.312319
0.290514
0.266781
0.267992
0.286901
0.294074
0.283841
0.278708
0.292526
0.268239
0.271722
0.297867
0.303775
0.277965
0.262382
0.286666
0.314734
0.296383
0.252922
0.253988
0.304275
0.320777
0.260048
0.203426
0.240484
0.311613
0.279293
0.155532
0.117631
0.232969
0.315971
0.202589
0.0422553
0.0916552
0.286232
0.307901
0.0996725
-0.0118595
0.163035
0.350085
0.243102
0.00486443
0.0080681
0.236377
0.323232
0.146695
0.00294571
0.1124
0.290076
0.274088
0.128809
0.100118
0.223192
0.307662
0.255235
0.183867
0.215124
0.297547
0.313924
0.263123
0.239465
0.277167
0.311508
0.292656
0.25749
0.260854
0.291876
0.300365
0.275709
0.256115
0.267271
0.288518
0.289246
0.273057
0.265178
0.270762
0.273957
0.27332
0.283867
0.300692
0.298018
0.272168
0.248498
0.243514
0.258699
0.297847
0.343227
0.347363
0.301645
0.257231
0.233519
0.204763
0.205453
0.289762
0.377446
0.355137
0.297779
0.322022
0.325248
0.198144
0.116762
0.245836
0.393409
0.352066
0.279853
0.351799
0.392979
0.245633
0.117176
0.19886
0.325401
0.321543
0.29759
0.355367
0.37697
0.288138
0.203799
0.204068
0.233087
0.255856
0.299876
0.346995
0.34477
0.29977
0.259719
0.245392
0.253778
0.278918
0.302194
0.303591
0.290978
0.285049
0.28349
0.27495
0.271304
0.287328
0.278357
0.267905
0.288793
0.308141
0.289713
0.260178
0.27025
0.308013
0.310444
0.265488
0.241553
0.282966
0.329445
0.300785
0.229385
0.224974
0.305979
0.356564
0.294251
0.205867
0.233626
0.358276
0.405305
0.297967
0.193835
0.264449
0.419892
0.423796
0.26265
0.187831
0.325472
0.464115
0.382571
0.205745
0.208972
0.382209
0.454126
0.322394
0.197688
0.261356
0.400517
0.40487
0.279301
0.208967
0.277215
0.364873
0.341511
0.247181
0.216668
0.280105
0.333447
0.303533
0.248378
0.253703
0.303383
0.318431
0.282865
0.257896
0.280151
0.310814
0.303389
0.274364
0.271071
0.295894
0.306888
0.287297
0.26878
0.277026
0.296645
0.305228
0.302267
0.290042
0.267422
0.25219
0.26577
0.296852
0.322805
0.340463
0.331432
0.264148
0.183671
0.189917
0.274805
0.33488
0.363328
0.406271
0.366766
0.169605
0.0298285
0.163045
0.385334
0.431502
0.408584
0.469183
0.40869
0.0995546
-0.100622
0.0994617
0.40842
0.468941
0.408681
0.431638
0.384815
0.162175
0.0299204
0.170812
0.367589
0.405999
0.362939
0.334912
0.274191
0.187844
0.181282
0.262674
0.329843
0.337178
0.318541
0.294041
0.264801
0.249726
0.261781
0.285526
0.302443
0.305685
0.291206
0.268896
0.267051
0.291263
0.264996
0.27724
0.306586
0.305256
0.268576
0.254858
0.291727
0.321477
0.291194
0.247338
0.268246
0.331295
0.338763
0.278547
0.255919
0.324414
0.390666
0.367116
0.319937
0.352075
0.424296
0.430346
0.386012
0.392816
0.45224
0.467158
0.418749
0.400268
0.452474
0.492143
0.454566
0.403271
0.424425
0.483973
0.484008
0.423788
0.399765
0.444721
0.473631
0.43116
0.387136
0.409124
0.439088
0.401047
0.345834
0.360283
0.402184
0.371165
0.292417
0.277629
0.332653
0.351141
0.295228
0.250367
0.278444
0.324338
0.314113
0.269097
0.260628
0.29569
0.315903
0.295867
0.275571
0.28584
0.301727
0.295143
0.282884
0.289597
0.304318
0.304408
0.288226
0.266293
0.254805
0.2757
0.320561
0.339139
0.312269
0.280686
0.254945
0.203687
0.174881
0.255878
0.376801
0.391185
0.347973
0.369012
0.340117
0.140868
0.0133425
0.194361
0.434732
0.430987
0.367047
0.456685
0.434485
0.110353
-0.111414
0.110693
0.434595
0.456429
0.366875
0.430939
0.434267
0.193596
0.0133098
0.141777
0.340856
0.369223
0.348555
0.392274
0.37745
0.255993
0.17564
0.205118
0.255018
0.278702
0.310427
0.338763
0.319497
0.271257
0.248663
0.263133
0.287363
0.299125
0.293218
0.28085
0.28154
0.292898
0.267553
0.292968
0.309863
0.28616
0.254715
0.271151
0.316201
0.314618
0.262649
0.248694
0.308114
0.347438
0.290855
0.225104
0.273241
0.369111
0.33646
0.202257
0.198437
0.363362
0.416149
0.216348
0.06214
0.231231
0.476692
0.38428
0.0683286
0.0304507
0.34841
0.520538
0.263341
-0.0199419
0.123179
0.465324
0.46086
0.118033
-0.0228709
0.245868
0.485706
0.331207
0.0552551
0.0917515
0.348686
0.41411
0.234948
0.139445
0.262844
0.377225
0.318372
0.224105
0.253721
0.337232
0.33301
0.261391
0.243027
0.296602
0.327845
0.291048
0.250296
0.264973
0.302064
0.303348
0.275934
0.264547
0.277758
0.29126
0.29348
0.288403
0.278722
0.270721
0.270637
0.27291
0.280545
0.309659
0.335458
0.299266
0.221701
0.202805
0.254339
0.288868
0.309823
0.377252
0.387382
0.224055
0.0796958
0.190351
0.378829
0.372652
0.325301
0.434492
0.434714
0.128221
-0.0740618
0.168423
0.472213
0.426347
0.306378
0.426761
0.472336
0.168144
-0.0740882
0.128635
0.434971
0.434341
0.325237
0.372762
0.378505
0.189723
0.0796212
0.224435
0.387566
0.377721
0.311534
0.291196
0.255631
0.203668
0.224548
0.303461
0.337622
0.309495
0.282051
0.278259
0.275325
0.269937
0.276988
0.29375
0.302939
0.293307
0.287673
0.306899
0.29391
0.261552
0.260356
0.301662
0.324109
0.28326
0.237513
0.267235
0.332254
0.314805
0.215206
0.183605
0.286565
0.356002
0.224052
0.0391284
0.0975426
0.339813
0.35312
0.0294453
-0.165525
0.104481
0.440984
0.285497
-0.160547
-0.200929
0.24511
0.476547
0.115276
-0.274593
-0.0746836
0.397135
0.391346
-0.0791924
-0.270657
0.106714
0.451328
0.245155
-0.151053
-0.117178
0.259671
0.397236
0.154394
-0.0302886
0.113416
0.330383
0.323945
0.185155
0.163571
0.275328
0.341143
0.287462
0.225871
0.253043
0.315057
0.316787
0.269305
0.251621
0.281083
0.303632
0.288871
0.265265
0.26616
0.287781
0.300915
0.28466
0.255429
0.254979
0.289137
0.311759
0.302752
0.296715
0.291517
0.239721
0.183658
0.232336
0.348713
0.385558
0.358269
0.373247
0.325114
0.0964132
-0.0557437
0.141835
0.438171
0.482318
0.43992
0.526416
0.441627
0.00406106
-0.263354
0.0503603
0.49433
0.55076
0.462377
0.550984
0.494184
0.0499164
-0.263362
0.00461842
0.442149
0.526629
0.440066
0.482333
0.437711
0.141183
-0.0560128
0.0961866
0.324412
0.37261
0.358194
0.385322
0.347749
0.232066
0.185572
0.241801
0.291201
0.296387
0.306306
0.317473
0.291497
0.25414
0.259127
0.295574
0.309473
0.286666
0.310324
0.308521
0.268032
0.249845
0.285887
0.325488
0.303867
0.245883
0.24202
0.30737
0.341544
0.279579
0.208431
0.247762
0.359691
0.380865
0.257148
0.156992
0.257446
0.45286
0.451708
0.221118
0.103103
0.311378
0.551841
0.442762
0.135382
0.112409
0.423945
0.583688
0.333139
0.0648071
0.204726
0.530613
0.525745
0.202506
0.0742568
0.336108
0.570892
0.422364
0.139881
0.154977
0.414692
0.513015
0.32985
0.159364
0.22357
0.382938
0.402478
0.281232
0.201201
0.254704
0.341611
0.335308
0.259591
0.232234
0.282915
0.326389
0.305714
0.265393
0.265193
0.295671
0.308986
0.290584
0.271827
0.281551
0.30153
0.291865
0.263579
0.273386
0.319786
0.325943
0.27396
0.244148
0.262587
0.264825
0.264446
0.33629
0.395019
0.297411
0.168973
0.225204
0.334789
0.269143
0.20382
0.356501
0.447715
0.222861
0.055443
0.275664
0.484211
0.305522
0.131018
0.331426
0.495579
0.247079
0.0248595
0.247279
0.495421
0.330976
0.130883
0.305706
0.484241
0.275564
0.0555926
0.223232
0.448037
0.356866
0.204373
0.269488
0.334664
0.224972
0.168517
0.296081
0.393196
0.335279
0.264186
0.263035
0.258698
0.24177
0.274591
0.324903
0.313922
0.267814
0.264494
0.294837
0.296455
0.270605
0.318842
0.293544
0.248087
0.261787
0.317057
0.32359
0.264202
0.231492
0.285988
0.349922
0.323453
0.255499
0.273151
0.36527
0.398267
0.348836
0.336684
0.404682
0.455165
0.438357
0.428298
0.471003
0.505612
0.483522
0.453727
0.474927
0.518783
0.520742
0.482748
0.465941
0.495872
0.527314
0.51357
0.474771
0.469268
0.507195
0.530593
0.498914
0.455793
0.464944
0.506785
0.505944
0.456238
0.432552
0.457219
0.456615
0.400923
0.36988
0.400557
0.40203
0.324108
0.267388
0.309246
0.362336
0.325918
0.252652
0.249124
0.305458
0.328901
0.29127
0.255925
0.273481
0.312191
0.311951
0.276573
0.265075
0.291816
0.30434
0.285945
0.288078
0.314027
0.291769
0.22722
0.228399
0.304974
0.343545
0.336288
0.363487
0.336586
0.138824
-0.0153085
0.143834
0.418914
0.478444
0.453504
0.538627
0.437893
-0.0231989
-0.298224
0.0411251
0.515114
0.578245
0.493957
0.589687
0.497758
-0.0232395
-0.363225
-0.0228882
0.497883
0.589549
0.493959
0.578255
0.514751
0.0406399
-0.298287
-0.0227606
0.438563
0.539291
0.45401
0.478792
0.419441
0.144777
-0.0145282
0.139039
0.337186
0.36499
0.337201
0.342381
0.30315
0.228731
0.228144
0.288433
0.307573
0.285464
0.287825
0.301772
0.280635
0.255934
0.309801
0.270891
0.246166
0.29036
0.332874
0.293353
0.228509
0.250837
0.337388
0.346775
0.250855
0.210613
0.315672
0.3905
0.269303
0.1337
0.24939
0.459171
0.379466
0.080613
0.048413
0.379321
0.559141
0.274529
-0.048097
0.104379
0.505114
0.526162
0.12811
-0.0678125
0.247593
0.581445
0.409883
0.00077799
-0.00559706
0.398539
0.576523
0.248799
-0.0717568
0.109321
0.497742
0.489014
0.118922
-0.0240215
0.255462
0.491809
0.347404
0.115491
0.166911
0.362745
0.37464
0.236248
0.205064
0.309416
0.361001
0.293304
0.231435
0.264098
0.323731
0.315822
0.261637
0.250561
0.294711
0.31519
0.278896
0.253443
0.282583
0.30962
0.291578
0.275176
0.282957
0.264085
0.234715
0.282704
0.3638
0.337863
0.25268
0.267454
0.302067
0.194808
0.118941
0.288811
0.451545
0.326334
0.203469
0.372043
0.46505
0.171092
-0.0477452
0.214327
0.505128
0.373059
0.20754
0.395771
0.510141
0.182638
-0.0806147
0.182965
0.51029
0.395762
0.207756
0.373312
0.505001
0.213996
-0.047843
0.171298
0.465323
0.372013
0.202991
0.325928
0.451872
0.289697
0.119596
0.195378
0.303723
0.26985
0.253951
0.338253
0.365842
0.28687
0.237473
0.2633
0.28335
0.281179
0.297656
0.307889
0.277562
0.257349
0.292254
0.257912
0.26401
0.315886
0.320991
0.253478
0.22198
0.292527
0.357729
0.292505
0.172186
0.189487
0.338111
0.356373
0.130852
-0.0297625
0.165447
0.429928
0.266865
-0.169538
-0.210449
0.247502
0.490846
0.098631
-0.343994
-0.139968
0.40231
0.430291
-0.110335
-0.376294
0.0518708
0.503713
0.268848
-0.285063
-0.289254
0.260401
0.499393
0.0571274
-0.366987
-0.111958
0.414634
0.397751
-0.106021
-0.29495
0.100502
0.449033
0.269646
-0.0633009
-0.0154292
0.286794
0.384108
0.225091
0.126575
0.225704
0.34621
0.330504
0.24527
0.232205
0.297207
0.329979
0.286716
0.24846
0.274787
0.307806
0.288773
0.264263
0.284226
0.301792
0.276659
0.260337
0.280829
0.28697
0.285383
0.334982
0.356961
0.231329
0.098318
0.185452
0.373005
0.406725
0.392087
0.48815
0.418428
0.00793045
-0.242706
0.0749784
0.506378
0.533736
0.438343
0.551735
0.489456
-0.00387985
-0.317826
0.031749
0.519998
0.55679
0.441904
0.556912
0.519836
0.0314624
-0.317725
-0.00349495
0.489654
0.551716
0.43834
0.533767
0.506299
0.0745607
-0.243425
0.00755708
0.418676
0.488129
0.391159
0.405794
0.373011
0.185322
0.0969691
0.230875
0.359513
0.338089
0.285593
0.286263
0.284705
0.267923
0.279668
0.29865
0.28547
0.275537
0.277026
0.265867
0.291627
0.320639
0.287964
0.232817
0.255772
0.33497
0.339055
0.243255
0.187661
0.272493
0.396615
0.377179
0.214411
0.145388
0.323005
0.519354
0.406735
0.109475
0.08948
0.414035
0.59067
0.328199
0.0267522
0.165205
0.535557
0.556419
0.189383
0.00872133
0.300355
0.607409
0.446636
0.0704245
0.0701505
0.444996
0.605767
0.30499
0.0212067
0.19817
0.551687
0.530195
0.181309
0.053786
0.324115
0.555076
0.416698
0.162739
0.165024
0.360941
0.442677
0.330872
0.208894
0.222428
0.318524
0.355402
0.293865
0.236129
0.265367
0.322246
0.314373
0.268749
0.265575
0.294494
0.298204
0.286895
0.291244
0.284821
0.260056
0.272088
0.316998
0.31667
0.287157
0.309455
0.312314
0.189776
0.104407
0.254857
0.442809
0.399749
0.320979
0.433361
0.423017
0.0540747
-0.184011
0.120674
0.509398
0.485332
0.37149
0.513707
0.501398
0.0460166
-0.257426
0.0731372
0.518292
0.507639
0.371624
0.507718
0.518051
0.0727113
-0.257522
0.0462272
0.501502
0.513639
0.371438
0.485328
0.509375
0.120535
-0.184163
0.0543749
0.423551
0.432911
0.319465
0.398651
0.442236
0.252997
0.101291
0.188513
0.31341
0.308512
0.282819
0.314266
0.319622
0.273865
0.255024
0.279163
0.295095
0.295257
0.270518
0.290203
0.311827
0.300077
0.254015
0.246693
0.310606
0.347371
0.284112
0.225661
0.286573
0.383339
0.382872
0.336348
0.364611
0.437764
0.458967
0.444078
0.462573
0.503334
0.511422
0.48897
0.484173
0.511278
0.532474
0.518452
0.492712
0.495279
0.522301
0.533415
0.513143
0.492766
0.50284
0.528217
0.530495
0.50493
0.489124
0.508135
0.534254
0.52565
0.491073
0.479759
0.506864
0.526767
0.500543
0.460247
0.459644
0.476532
0.444683
0.385024
0.380958
0.409304
0.366937
0.278869
0.272356
0.339413
0.34556
0.273496
0.243043
0.289812
0.321454
0.295393
0.269051
0.275859
0.290483
0.299045
0.297793
0.272544
0.25487
0.297497
0.34479
0.294702
0.213468
0.245369
0.322409
0.29707
0.281661
0.405042
0.416515
0.123963
-0.078166
0.16927
0.484278
0.433886
0.32083
0.468806
0.483758
0.0802105
-0.183042
0.137033
0.524515
0.45643
0.305534
0.46607
0.512768
0.102949
-0.199029
0.103172
0.512805
0.465912
0.305513
0.456507
0.524413
0.136801
-0.183165
0.0802449
0.483848
0.468834
0.320874
0.434292
0.484775
0.168916
-0.0789081
0.124284
0.41698
0.403464
0.279091
0.296626
0.322973
0.242526
0.20866
0.29408
0.347203
0.294909
0.247087
0.270338
0.304746
0.301851
0.275518
0.315423
0.310812
0.265126
0.239234
0.284789
0.346678
0.309567
0.205494
0.217924
0.359251
0.377672
0.190218
0.109479
0.323392
0.489946
0.281873
0.00231843
0.130794
0.502679
0.528805
0.14523
-0.0537973
0.252753
0.590734
0.426179
0.0101231
-0.0068853
0.404284
0.601143
0.275003
-0.0645285
0.113656
0.530694
0.533599
0.116961
-0.0687514
0.264789
0.593112
0.402221
-0.00757641
0.00207081
0.408708
0.576359
0.257386
-0.0380392
0.135621
0.475041
0.452856
0.156368
0.0799257
0.297076
0.418464
0.291696
0.184691
0.26243
0.35577
0.316865
0.241845
0.250883
0.303254
0.314307
0.285523
0.262132
0.268067
0.297142
0.30923
0.276022
0.254316
0.303958
0.338639
0.251878
0.161768
0.244536
0.386122
0.380439
0.342268
0.424948
0.374902
0.0138867
-0.207782
0.0978042
0.512351
0.548809
0.471937
0.579339
0.481358
-0.0472661
-0.364585
0.010566
0.527476
0.585018
0.48444
0.592576
0.513628
-0.0231519
-0.378184
-0.0228886
0.513818
0.592628
0.484536
0.585103
0.527386
0.010413
-0.364592
-0.0471466
0.481414
0.579171
0.471653
0.548754
0.51238
0.0973617
-0.208077
0.0147485
0.375476
0.423427
0.340482
0.380825
0.386516
0.241905
0.159476
0.254315
0.340995
0.299774
0.249312
0.280062
0.317124
0.294326
0.291127
0.327974
0.288587
0.236424
0.253609
0.323798
0.341556
0.250267
0.163857
0.239376
0.384827
0.312895
0.031092
-0.0407091
0.261327
0.448236
0.120412
-0.284017
-0.117971
0.388239
0.424891
-0.103446
-0.383357
0.0322009
0.497295
0.276604
-0.291371
-0.317
0.24258
0.510989
0.0659954
-0.396583
-0.15222
0.416418
0.418678
-0.148315
-0.396131
0.0617648
0.506061
0.243213
-0.308773
-0.2848
0.270507
0.489067
0.0502403
-0.339315
-0.0825697
0.397922
0.388294
-0.00168418
-0.11304
0.186087
0.406854
0.296715
0.140193
0.192403
0.327842
0.34492
0.26898
0.234795
0.273898
0.317783
0.310573
0.266129
0.249027
0.290544
0.325596
0.288319
0.245142
0.285383
0.326823
0.25929
0.206386
0.316882
0.411036
0.275611
0.135177
0.266374
0.41651
0.286119
0.172697
0.365045
0.475431
0.193596
-0.00475779
0.263645
0.513059
0.314656
0.121922
0.342863
0.510939
0.224797
-0.0129842
0.246457
0.519871
0.331887
0.120624
0.332007
0.519895
0.246379
-0.0129898
0.224847
0.51093
0.342863
0.122039
0.31482
0.51309
0.263415
-0.005151
0.193299
0.47515
0.364485
0.172368
0.28661
0.416509
0.264797
0.13393
0.275867
0.410241
0.313979
0.20534
0.261564
0.326228
0.279515
0.24281
0.293983
0.327962
0.281227
0.310169
0.323948
0.25898
0.231337
0.291068
0.342556
0.302717
0.22307
0.218735
0.318109
0.400186
0.322006
0.152851
0.158197
0.398061
0.532604
0.309582
0.0362324
0.156094
0.512996
0.546642
0.185533
-0.00842368
0.278076
0.601398
0.452814
0.0634321
0.0452571
0.428826
0.612959
0.307999
-0.00849365
0.159792
0.549232
0.5498
0.162073
-0.0047636
0.310292
0.612237
0.43002
0.0546204
0.0754086
0.453422
0.593378
0.286021
0.0215893
0.199104
0.519165
0.499512
0.21941
0.119261
0.295153
0.438618
0.368037
0.234529
0.218075
0.296894
0.346978
0.315266
0.255862
0.249335
0.301215
0.329875
0.286154
0.243558
0.281884
0.333801
0.294867
0.23128
0.268535
0.337115
0.304996
0.270403
0.358557
0.372507
0.130601
-0.0543709
0.157522
0.482686
0.525402
0.482135
0.577968
0.44906
-0.0828852
-0.380174
0.0107491
0.534347
0.602521
0.514345
0.614261
0.502103
-0.0613576
-0.410591
-0.03116
0.52305
0.613045
0.516342
0.613029
0.522907
-0.0313645
-0.41068
-0.0613445
0.502102
0.614255
0.514385
0.602588
0.534414
0.0107862
-0.380197
-0.0829394
0.448966
0.577805
0.482205
0.525919
0.48286
0.15699
-0.0543341
0.130983
0.371006
0.356033
0.270294
0.306013
0.333948
0.262935
0.231262
0.298234
0.328684
0.269791
0.321395
0.308249
0.238885
0.251081
0.329502
0.327303
0.244394
0.234462
0.325875
0.374814
0.328648
0.307537
0.375926
0.444854
0.449065
0.442054
0.472606
0.506301
0.506984
0.495211
0.501559
0.520449
0.526714
0.514087
0.503221
0.51196
0.52856
0.528389
0.511666
0.504075
0.517499
0.531473
0.524453
0.506897
0.505673
0.5232
0.532884
0.518899
0.501233
0.506792
0.528045
0.53208
0.509585
0.491242
0.503536
0.524958
0.512233
0.470406
0.454011
0.473025
0.462452
0.399945
0.360888
0.379679
0.373555
0.300262
0.256263
0.304667
0.348461
0.299149
0.237739
0.269038
0.330505
0.307708
0.248344
0.270035
0.326748
0.294588
0.230859
0.275349
0.354677
0.311172
0.241245
0.307441
0.351798
0.192506
0.0868255
0.286653
0.470437
0.325814
0.198746
0.392017
0.484799
0.163139
-0.0588461
0.225
0.515668
0.359378
0.187399
0.393123
0.514562
0.177954
-0.0814
0.198374
0.519436
0.377103
0.184177
0.3771
0.519375
0.198323
-0.0813442
0.178042
0.514565
0.393051
0.18729
0.35927
0.51569
0.225226
-0.0585575
0.163334
0.484966
0.392299
0.199164
0.326314
0.470912
0.287401
0.0883502
0.193743
0.351379
0.307268
0.243329
0.312606
0.352505
0.273799
0.234331
0.296356
0.319395
0.263216
0.318253
0.291104
0.238105
0.281133
0.346361
0.285184
0.188299
0.253733
0.389558
0.325367
0.126116
0.151238
0.410505
0.464646
0.166616
-0.0184254
0.244688
0.567744
0.434045
0.0409878
0.00907906
0.39975
0.603707
0.295121
-0.047524
0.113742
0.528454
0.545898
0.136564
-0.0588999
0.266282
0.602976
0.423408
0.00808603
0.00673702
0.420977
0.601582
0.265039
-0.0627093
0.129752
0.539114
0.524546
0.11147
-0.053443
0.282149
0.58869
0.393274
0.0119927
0.0315235
0.388317
0.512305
0.25566
0.0710129
0.222702
0.408641
0.340669
0.193174
0.224258
0.343989
0.3367
0.242639
0.240097
0.31494
0.318284
0.257463
0.262008
0.314969
0.295196
0.245623
0.293535
0.353537
0.266065
0.157873
0.243487
0.39066
0.378547
0.362252
0.484895
0.413207
-0.0230083
-0.269676
0.0819334
0.530648
0.554368
0.4621
0.576341
0.488326
-0.0372404
-0.351271
0.024584
0.530161
0.569234
0.459694
0.576252
0.514886
-0.00766808
-0.357789
-0.00759215
0.514972
0.576357
0.459839
0.569339
0.530177
0.0245613
-0.351334
-0.0373706
0.488258
0.576454
0.462258
0.554422
0.530728
0.0821588
-0.26954