# vtk DataFile Version 3.0
PFC-RG simulation results
ASCII
DATASET STRUCTURED_POINTS
DIMENSIONS 128 128 1
ORIGIN 0 0 0
SPACING 1 1 1
POINT_DATA 16384
SCALARS psi double
lOOKUP_TABLE default
0.481765
0.529388
0.477832
0.446429
0.490439
0.518626
0.5056
0.508809
0.529378
0.525914
0.50641
0.508358
0.528792
0.533966
0.517441
0.506788
0.517823
0.5327
0.528905
0.513019
0.509286
0.522969
0.533644
0.525504
0.511204
0.512253
0.528337
0.536071
0.523037
0.507702
0.513661
0.53635
0.543997
0.522751
0.498285
0.51133
0.552888
0.558227
0.506146
0.475174
0.535333
0.591393
0.529099
0.4428
0.50361
0.61998
0.571034
0.438737
0.469098
0.612796
0.602759
0.471692
0.465415
0.575255
0.596741
0.507936
0.471203
0.529736
0.572402
0.539412
0.489731
0.491078
0.533375
0.557128
0.536373
0.509208
0.507152
0.514781
0.513472
0.503235
0.489157
0.478383
0.495714
0.54144
0.497725
0.307266
0.225233
0.418798
0.584889
0.511382
0.475296
0.606849
0.506761
0.0245699
-0.233831
0.13077
0.576832
0.573103
0.453376
0.593704
0.569474
0.0302039
-0.381413
-0.042688
0.531407
0.632082
0.510237
0.598472
0.537076
-0.00277839
-0.405391
-0.072508
0.501519
0.622179
0.521675
0.61208
0.531867
-0.0228756
-0.413449
-0.0610861
0.510586
0.618948
0.519752
0.614579
0.525924
-0.034093
-0.413407
-0.053101
0.513314
0.623839
0.530721
0.606984
0.508944
0.0066824
-0.331342
-0.0616214
0.41437
0.593101
-0.00961697
0.0755181
0.304088
0.555067
0.479435
0.0955676
-0.0446972
0.301182
0.601449
0.373204
-0.0235842
0.0465502
0.474452
0.579385
0.194116
-0.0703678
0.204726
0.583578
0.466652
0.0394927
-0.0221456
0.37844
0.607214
0.302866
-0.0525727
0.101891
0.521046
0.542621
0.134221
-0.0590927
0.264796
0.592963
0.410242
0.0090957
0.0179679
0.417583
0.580158
0.255584
-0.0484282
0.134653
0.517093
0.505753
0.127996
-0.0286228
0.262338
0.522601
0.366303
0.105808
0.15444
0.364406
0.385323
0.296351
0.304713
0.293899
0.183747
0.204172
0.422754
0.48272
0.220217
0.0363592
0.255322
0.554578
0.460101
0.119528
0.0769314
0.405564
0.576882
0.310633
0.0500744
0.243256
0.58825
0.510607
0.125346
0.0470705
0.333606
0.478052
0.394999
0.392315
0.412913
0.274122
0.198501
0.370604
0.47128
0.268045
0.145481
0.371579
0.502485
0.24211
0.077888
0.353888
0.549167
0.241374
-0.0380957
0.214649
0.512746
0.336466
0.119798
0.33455
0.530036
0.240353
-0.0465247
0.195767
0.511602
0.35524
0.129734
0.326477
0.520964
0.247002
-0.0209456
0.223123
0.516413
0.337837
0.113309
0.321659
0.519922
0.249164
-0.0114699
0.229234
0.515034
0.348897
0.134472
0.314002
0.498909
0.294974
0.0608082
0.161991
0.380196
0.457687
-0.221212
-0.204975
0.0835447
0.448767
0.35177
-0.17767
-0.368102
0.104247
0.507787
0.189143
-0.355134
-0.257287
0.330678
0.474798
-0.0550732
-0.419569
-0.0413486
0.480647
0.319992
-0.26888
-0.353983
0.198816
0.514186
0.0930526
-0.397887
-0.182875
0.396241
0.422623
-0.144093
-0.406705
0.0471894
0.496209
0.230635
-0.325668
-0.295107
0.267709
0.471787
0.000331314
-0.400237
-0.108888
0.40508
0.335219
-0.189174
-0.338227
0.0942701
0.399808
0.126833
-0.229654
-0.129132
0.18128
0.219699
0.0726313
0.0285365
0.000246705
-0.0924739
-0.0160512
0.247461
0.260167
-0.101399
-0.291627
0.0437902
0.41867
0.229378
-0.255475
-0.281323
0.212773
0.470027
0.0984186
-0.283271
-0.031051
0.440929
0.320178
-0.212308
-0.277641
0.208092
0.53126
0.491629
0.431725
0.309554
-0.0467977
-0.266809
0.0128873
0.433245
0.522638
0.480748
0.572621
0.445709
-0.0812806
-0.379989
-0.00381052
0.502846
0.555068
0.456998
0.577977
0.510114
-0.0308088
-0.392607
-0.0307253
0.515888
0.5898
0.472526
0.581238
0.532379
0.000230406
-0.386599
-0.0458019
0.50831
0.598391
0.487719
0.591134
0.5285
-0.0120244
-0.391495
-0.0404175
0.513075
0.600993
0.492745
0.589796
0.51916
-0.00619032
-0.371252
-0.0477791
0.486496
0.627717
0.5312
0.489608
0.410238
0.273694
0.17687
0.110704
0.241365
0.497753
0.487047
0.162261
0.0312545
0.343081
0.614581
0.393454
0.0179209
0.0863504
0.492699
0.592266
0.227137
-0.0240959
0.235987
0.595417
0.485486
0.0804147
0.0213966
0.401701
0.619271
0.329515
-0.00890742
0.139459
0.539193
0.556911
0.164791
-0.0152825
0.301242
0.611515
0.423429
0.0367966
0.0639679
0.45869
0.594802
0.260529
-0.0101547
0.206885
0.559959
0.488469
0.11897
0.0472396
0.373589
0.563013
0.328484
0.0795069
0.191872
0.427706
0.426031
0.293885
0.269604
0.26994
0.213714
0.266012
0.437201
0.416663
0.159457
0.0649139
0.322571
0.54485
0.35176
0.000768428
0.0218109
0.408156
0.58953
0.277017
-0.0594661
0.110546
0.483011
0.402548
0.0317017
0.0484406
0.394609
0.476512
0.337246
0.392833
0.440798
0.14
-0.119125
0.119524
0.476387
0.432674
0.278299
0.420597
0.487092
0.122838
-0.157601
0.123852
0.505469
0.459479
0.321558
0.481176
0.521619
0.0987592
-0.214029
0.0934594
0.518127
0.478724
0.31894
0.472659
0.531585
0.115442
-0.214347
0.0833264
0.514271
0.47465
0.306524
0.459762
0.526409
0.120115
-0.199712
0.0984252
0.51515
0.464683
0.301881
0.458397
0.518526
0.118699
-0.189542
0.0884854
0.484774
0.474365
0.336172
0.401542
0.457501
0.378471
0.505463
0.547443
0.469959
0.424322
0.487365
0.553841
0.54735
0.514618
0.508378
0.521134
0.529627
0.524715
0.512028
0.508774
0.521655
0.531994
0.522645
0.507787
0.511508
0.528334
0.53164
0.51644
0.507165
0.518257
0.532082
0.527386
0.512368
0.510358
0.523764
0.53228
0.523944
0.512194
0.51426
0.52755
0.532787
0.521718
0.510173
0.516439
0.535094
0.539364
0.520063
0.501412
0.515852
0.550491
0.551547
0.506647
0.483369
0.536562
0.583073
0.527808
0.452682
0.507543
0.612432
0.567025
0.440451
0.466463
0.609343
0.608155
0.47771
0.456064
0.564025
0.604827
0.514117
0.43937
0.484588
0.581462
0.587347
0.443966
0.307182
0.397315
0.583419
0.560582
0.45744
0.546504
0.562427
0.191141
-0.122789
0.133262
0.551954
0.547755
0.391635
0.506872
0.534145
0.102156
-0.246969
0.0505446
0.524674
0.547916
0.407999
0.522165
0.520193
0.074945
-0.248604
0.0637569
0.515993
0.514463
0.376481
0.512627
0.524458
0.0703805
-0.267669
0.04646
0.513316
0.51775
0.374104
0.511056
0.528671
0.0682631
-0.280744
0.0356532
0.513099
0.525371
0.386452
0.520083
0.522397
0.0533492
-0.282375
0.0462628
0.514185
0.519254
0.38868
0.513638
0.495798
0.0553612
-0.224081
0.0851384
0.493692
0.539318
0.271938
0.575418
0.368201
-0.00425
0.0660939
0.470075
0.571478
0.208569
-0.0587551
0.186673
0.569029
0.490496
0.0670565
-0.0382851
0.343478
0.611215
0.340115
-0.0418207
0.0706781
0.499987
0.566229
0.164797
-0.0681826
0.235988
0.595489
0.441734
0.0192281
-0.00328835
0.408799
0.603272
0.273726
-0.0574833
0.132402
0.542264
0.5247
0.108847
-0.0488568
0.298068
0.601017
0.384177
-0.00710361
0.0408697
0.447628
0.571814
0.221699
-0.0535359
0.170738
0.542159
0.48237
0.0899965
-0.0282126
0.296699
0.54055
0.341336
0.0594041
0.132516
0.389314
0.420597
0.279537
0.23714
0.275844
0.281582
0.324951
0.434449
0.431159
0.277623
0.196631
0.278506
0.392952
0.468833
0.459593
0.357844
0.377564
0.574095
0.521333
0.0232353
-0.307359
0.0283942
0.518257
0.545928
0.414125
0.542227
0.539236
0.054357
-0.315231
0.00486441
0.510587
0.552987
0.427299
0.547704
0.519522
0.0185995
-0.342983
-0.0112677
0.506241
0.567648
0.451854
0.564073
0.522313
0.0125541
-0.35112
-0.0151324
0.508554
0.570094
0.449594
0.563623
0.529274
0.0208267
-0.345714
-0.00993235
0.510518
0.564876
0.443598
0.560833
0.52295
0.0141155
-0.337101
0.00824167
0.511937
0.552135
0.444536
0.567853
0.506648
-0.00141098
-0.296677
0.0850429
0.518336
0.387337
-0.00213368
0.448066
0.211075
-0.284475
-0.211423
0.317321
0.454565
-0.0370082
-0.40442
-0.0682358
0.460469
0.355566
-0.226992
-0.37394
0.150065
0.51906
0.147176
-0.378745
-0.225547
0.364586
0.456572
-0.0956577
-0.417468
0.000640253
0.496217
0.284362
-0.299252
-0.330708
0.23914
0.507878
0.050369
-0.409236
-0.1449
0.423982
0.397489
-0.181373
-0.397177
0.0884901
0.504844
0.193986
-0.348977
-0.266574
0.305586
0.460349
-0.0429261
-0.406918
-0.0653982
0.43464
0.308116
-0.229202
-0.329678
0.139266
0.41805
0.0966169
-0.267177
-0.123347
0.23463
0.264334
0.0438173
-0.0504554
0.00699748
0.0795734
0.182665
0.273087
0.166592
-0.0476159
-0.0413488
0.203455
0.415966
0.454252
0.275779
-0.0309699
-0.0914919
0.236772
0.477684
0.297109
0.129919
0.345207
0.47997
0.145185
-0.123421
0.166835
0.523392
0.404565
0.206845
0.385776
0.50327
0.147763
-0.136214
0.156937
0.519832
0.400421
0.199592
0.380095
0.515251
0.182664
-0.104142
0.165173
0.515489
0.400283
0.204562
0.386245
0.522236
0.187183
-0.106912
0.159446
0.515648
0.407576
0.215341
0.395872
0.52272
0.176288
-0.118282
0.155673
0.51435
0.407747
0.224941
0.407447
0.51683
0.161566
-0.112895
0.17347
0.506806
0.373791
0.207938
0.438201
0.56279
0.117045
0.22278
0.538569
0.343161
0.00489424
0.101777
0.491126
0.578158
0.23356
-0.0156969
0.216129
0.577305
0.50786
0.111826
0.0100872
0.367006
0.620429
0.366694
0.0052445
0.108945
0.514178
0.57836
0.198741
-0.023695
0.263515
0.605365
0.459758
0.0566653
0.0342843
0.428037
0.614375
0.297866
-0.0208783
0.16208
0.556759
0.538394
0.136341
-0.0125181
0.32674
0.61574
0.396239
0.0176421
0.0801686
0.482566
0.586456
0.230844
-0.0162229
0.232701
0.576156
0.470956
0.0991441
0.0592412
0.400832
0.568428
0.314188
0.0756177
0.212073
0.463782
0.456571
0.286918
0.226036
0.275919
0.344678
0.422368
0.429018
0.272663
0.145806
0.260747
0.448462
0.502283
0.469371
0.294279
-0.073794
-0.24217
0.0918259
0.51413
0.567515
0.503479
0.610521
0.503842
-0.049919
-0.398838
-0.0260272
0.521952
0.604543
0.504785
0.609028
0.520582
-0.0418141
-0.410925
-0.0371615
0.525116
0.614354
0.510933
0.611151
0.527547
-0.03156
-0.414911
-0.0560613
0.513681
0.618264
0.516275
0.611544
0.530154
-0.0260317
-0.414689
-0.0619532
0.508876
0.616817
0.515782
0.611368
0.529608
-0.0269414
-0.412766
-0.057662
0.509925
0.615245
0.51729
0.612027
0.52309
-0.0296963
-0.400617
-0.0461523
0.504392
0.598264
0.487825
0.585662
0.581966
0.163536
0.533752
0.561043
0.460596
0.422399
0.501553
0.542296
0.511241
0.502917
0.528724
0.527987
0.503198
0.504265
0.529271
0.535485
0.515979
0.504315
0.517334
0.532878
0.527381
0.510722
0.508844
0.523797
0.531946
0.521153
0.508917
0.514113
0.528034
0.528965
0.516087
0.509908
0.51967
0.529917
0.525118
0.513405
0.512792
0.523703
0.529802
0.522778
0.513933
0.516036
0.526301
0.529904
0.52106
0.512236
0.518076
0.533875
0.535919
0.516804
0.502154
0.521298
0.55256
0.543184
0.498006
0.491958
0.55162
0.576237
0.509808
0.466568
0.543126
0.606887
0.531136
0.463562
0.541175
0.601458
0.511597
0.477218
0.56703
0.509012
0.317763
0.321445
0.42386
0.297182
0.157028
0.333269
0.512469
0.336943
0.164944
0.363022
0.519724
0.250289
0.0230972
0.271951
0.521867
0.308861
0.0880459
0.315154
0.527218
0.271594
0.0300066
0.27176
0.523071
0.309423
0.0861172
0.312085
0.524337
0.263459
0.00930955
0.249795
0.519899
0.319809
0.0880793
0.303616
0.521137
0.269271
0.0138747
0.249519
0.519219
0.317546
0.0803846
0.295017
0.519907
0.277115
0.0252705
0.256902
0.519817
0.315296
0.0769301
0.287464
0.515103
0.287761
0.0394775
0.251079
0.519919
0.362418
0.109287
0.219038
0.458546
0.450861
0.312007
0.185662
0.246691
0.469549
0.467467
0.129829
-0.0282702
0.294507
0.598957
0.378247
-0.0255488
0.0373913
0.470344
0.584313
0.199672
-0.071835
0.199699
0.583739
0.473202
0.0442772
-0.0238078
0.37645
0.611572
0.31
-0.0502399
0.101184
0.524446
0.549889
0.137945
-0.0591958
0.269974
0.604649
0.416283
0.00377608
0.0192327
0.437346
0.597018
0.246859
-0.0585982
0.162867
0.560383
0.505532
0.0856377
-0.0366906
0.329559
0.605243
0.356151
-0.0238636
0.0611134
0.473719
0.56138
0.185078
-0.0645525
0.203022
0.564281
0.444566
0.0365195
-0.0104494
0.367041
0.548761
0.271896
0.0338189
0.19739
0.440782
0.450969
0.420119
0.408597
0.181053
-0.0732086
0.0871042
0.471588
0.578849
0.516275
0.577741
0.473487
-0.0241536
-0.350052
-0.0124933
0.503072
0.587787
0.498426
0.601774
0.516601
-0.0305582
-0.393998
-0.0320696
0.517013
0.602208
0.502253
0.603885
0.517235
-0.0351313
-0.400824
-0.0367313
0.516204
0.602144
0.49772
0.600637
0.525874
-0.0225107
-0.401334
-0.0474512
0.511701
0.60613
0.500238
0.600886
0.530351
-0.0168095
-0.402738
-0.0538594
0.509404
0.609824
0.503785
0.600751
0.531046
-0.0117764
-0.402221
-0.0657721
0.501132
0.622636
0.511952
0.576262
0.535317
0.0982326
-0.293884
-0.156465
0.289568
0.58106
-0.158351
-0.161449
0.0872478
0.426763
0.356155
-0.157429
-0.372526
0.0844244
0.504881
0.20183
-0.351093
-0.267486
0.322901
0.48008
-0.0458889
-0.419875
-0.0491044
0.478789
0.328008
-0.262493
-0.357822
0.192935
0.5178
0.102225
-0.396047
-0.188207
0.39672
0.432814
-0.137033
-0.411097
0.0438241
0.507678
0.246852
-0.325813
-0.304827
0.276092
0.497945
0.00979396
-0.416325
-0.107114
0.447671
0.370459
-0.215758
-0.384068
0.128922
0.509664
0.157001
-0.368386
-0.236875
0.339227
0.44583
-0.0839597
-0.409689
-0.020025
0.460286
0.267952
-0.277147
-0.301567
0.210092
0.419961
0.0366128
-0.261138
-0.0286934
0.302676
0.32413
0.247215
0.209751
0.0485717
-0.0629965
0.170612
0.453899
0.388642
0.267221
0.431534
0.488554
0.103425
-0.190488
0.100608
0.501089
0.448804
0.286191
0.443466
0.515147
0.127274
-0.172821
0.122058
0.512982
0.437691
0.268974
0.438556
0.517615
0.127835
-0.173798
0.122296
0.517175
0.446665
0.277016
0.44285
0.523089
0.132964
-0.176606
0.115334
0.516407
0.449497
0.273624
0.436476
0.525194
0.142744
-0.170007
0.115706
0.515267
0.446869
0.265885
0.427261
0.525227
0.154182
-0.163026
0.106274
0.507915
0.460901
0.27083
0.390003
0.512004
0.256739
-0.0460469
0.0248385
0.305887
0.462422
-0.161301
0.0291771
0.304055
0.555227
0.510108
0.156859
0.000452827
0.314521
0.612061
0.406707
0.0231814
0.0784757
0.485118
0.594166
0.232619
-0.0251028
0.229082
0.591971
0.488644
0.0821545
0.0156847
0.394715
0.619194
0.332852
-0.0118241
0.130854
0.535252
0.560923
0.166662
-0.0238291
0.290738
0.61247
0.43201
0.0343396
0.0482084
0.45176
0.606705
0.267304
-0.0300677
0.184816
0.571867
0.518756
0.110423
-0.00610912
0.352547
0.617714
0.370673
0.00555505
0.101263
0.504796
0.576862
0.20661
-0.0140174
0.264189
0.594143
0.450123
0.0759185
0.0787927
0.436207
0.557735
0.284796
0.112463
0.284395
0.447299
0.386769
0.345235
0.397416
0.368701
0.36976
0.519097
0.456904
-0.00206248
-0.272372
0.0840007
0.537366
0.524461
0.383794
0.518142
0.521167
0.0538289
-0.289972
0.0330458
0.516177
0.537864
0.406297
0.534001
0.519586
0.0352937
-0.306129
0.0313163
0.520501
0.540293
0.408094
0.535959
0.522328
0.0400975
-0.303946
0.0271612
0.51593
0.539139
0.406132
0.534067
0.526285
0.0453615
-0.307626
0.0175077
0.512692
0.543938
0.410343
0.535267
0.528186
0.0461751
-0.312901
0.00896395
0.510497
0.550974
0.415469
0.529768
0.526883
0.0652823
-0.299231
-0.019931
0.475435
0.581832
0.458433
0.45787
0.457032
0.306483
0.273003
0.442053
0.447001
0.416755
0.482185
0.542491
0.526619
0.50087
0.50721
0.522756
0.5292
0.525034
0.513596
0.508977
0.520575
0.531676
0.523516
0.508845
0.511822
0.527383
0.530168
0.516444
0.508804
0.518823
0.529913
0.524959
0.512478
0.511948
0.523614
0.529134
0.52029
0.511323
0.516124
0.52672
0.52647
0.516361
0.512588
0.520568
0.527687
0.523319
0.514524
0.514625
0.523635
0.52836
0.521603
0.513792
0.517355
0.527795
0.528892
0.518619
0.512916
0.521475
0.533816
0.532202
0.515649
0.503498
0.51996
0.549539
0.53649
0.477388
0.472898
0.563337
0.583051
0.42683
0.318321
0.465295
0.619959
0.530361
0.456166
0.578801
0.487688
-0.0154699
-0.306419
0.0637776
0.543048
0.553992
0.429686
0.558709
0.52931
0.0261972
-0.328245
0.0106298
0.516912
0.553862
0.426457
0.548912
0.52295
0.0267255
-0.320328
0.0208177
0.520089
0.550108
0.423126
0.547863
0.522404
0.0259102
-0.324722
0.0123325
0.515381
0.552301
0.424684
0.546792
0.525782
0.0330123
-0.323187
0.00768611
0.512465
0.551666
0.420825
0.542143
0.527752
0.0406294
-0.317679
0.00754763
0.509433
0.549039
0.417514
0.535981
0.526369
0.0556052
-0.297504
0.00297457
0.479311
0.525835
0.393746
0.476803
0.527813
0.300938
0.494589
0.544125
0.205788
-0.134288
0.0268775
0.475484
0.581227
0.21818
-0.0580085
0.174062
0.561267
0.500567
0.0807878
-0.0378069
0.336681
0.612277
0.349542
-0.0351717
0.0700987
0.498735
0.570499
0.172227
-0.063985
0.235951
0.596724
0.447758
0.0255809
-0.00181469
0.408578
0.60783
0.281391
-0.0541449
0.13175
0.545071
0.532605
0.114592
-0.0480084
0.301479
0.610723
0.391531
-0.00930489
0.0412722
0.462766
0.58871
0.220033
-0.0600865
0.190932
0.574972
0.483113
0.0606789
-0.02458
0.359329
0.603113
0.322697
-0.0392489
0.0798675
0.486847
0.54627
0.165704
-0.0778105
0.17817
0.534605
0.434892
0.0347329
-0.0206223
0.366234
0.54215
0.205747
-0.0520397
0.208759
0.509886
0.384101
0.22602
0.418472
0.511876
0.143496
-0.13521
0.158293
0.521383
0.416005
0.234346
0.414659
0.519568
0.150092
-0.146807
0.142156
0.519781
0.428307
0.25042
0.425128
0.519323
0.143383
-0.152061
0.140024
0.518975
0.427955
0.248262
0.421935
0.521758
0.151071
-0.149689
0.134937
0.516772
0.432273
0.251825
0.422454
0.523573
0.152258
-0.154796
0.127175
0.515427
0.43849
0.259367
0.426159
0.521853
0.14738
-0.158785
0.123586
0.51053
0.438628
0.269424
0.434523
0.514432
0.132207
-0.165179
0.1226
0.509643
0.427556
0.284693
0.443942
0.0664838
-0.378961
-0.218267
0.333983
0.466664
-0.0212006
-0.398338
-0.0832826
0.448293
0.365827
-0.212491
-0.377086
0.13821
0.517929
0.155475
-0.375706
-0.231059
0.360475
0.459725
-0.0909069
-0.418317
-0.00389066
0.49577
0.289864
-0.295429
-0.334164
0.234723
0.511573
0.0586838
-0.407963
-0.150761
0.423676
0.407389
-0.173867
-0.401535
0.083877
0.515059
0.210644
-0.348142
-0.27827
0.309458
0.485514
-0.0286776
-0.419687
-0.0692876
0.467204
0.34034
-0.247686
-0.365709
0.169797
0.509298
0.119798
-0.379028
-0.205947
0.360147
0.437996
-0.0808138
-0.392123
-0.0338113
0.429334
0.303301
-0.153559
-0.161977
0.299313
0.43562
-0.0407516
-0.386871
-0.0335918
0.507259
0.599253
0.502274
0.593055
0.497796
-0.0499594
-0.406056
-0.0376455
0.516328
0.606806
0.508561
0.609604
0.521811
-0.0369355
-0.40942
-0.0426774
0.517944
0.608785
0.507182
0.607507
0.520473
-0.0370141
-0.408176
-0.0418654
0.518149
0.609816
0.507734
0.607659
0.524784
-0.0301154
-0.408117
-0.0492559
0.513567
0.610897
0.507705
0.60616
0.527952
-0.0239229
-0.406454
-0.0524192
0.510904
0.609947
0.506756
0.605149
0.527191
-0.0230029
-0.401267
-0.0470263
0.507504
0.599699
0.501639
0.607613
0.52989
-0.0141769
-0.365925
0.00683855
0.513271
0.465321
0.0603655
0.453276
0.336858
0.0613541
0.153532
0.490636
0.55561
0.234242
-0.00255084
0.212933
0.567322
0.509943
0.116391
0.00288288
0.356211
0.618557
0.368639
0.000374624
0.0996841
0.509638
0.57878
0.196807
-0.0307109
0.256548
0.603325
0.460623
0.0542777
0.0269441
0.421716
0.614357
0.30009
-0.0246229
0.153389
0.552842
0.542279
0.138064
-0.0211545
0.316192
0.616915
0.40555
0.0159748
0.0639674
0.473808
0.597628
0.239544
-0.0337838
0.210234
0.585314
0.498485
0.0898709
0.00818747
0.380645
0.617206
0.350431
0.0097155
0.129843
0.517014
0.573556
0.228519
0.0225899
0.265811
0.584149
0.50343
0.176246
0.131291
0.418219
0.51916
0.209543
-0.0159164
0.22836
0.492397
0.307045
0.0858007
0.293365
0.508147
0.279084
0.0519472
0.282978
0.516289
0.288434
0.0571006
0.287977
0.520162
0.286868
0.0531617
0.287011
0.519749
0.28144
0.0432353
0.279204
0.52078
0.292837
0.0589216
0.289514
0.52045
0.282443
0.0425704
0.276298
0.520334
0.295237
0.0578559
0.285281
0.520288
0.285062
0.039811
0.269902
0.519842
0.301455
0.0634142
0.287229
0.520002
0.281858
0.0337764
0.264848
0.518918
0.305637
0.0724914
0.295821
0.520336
0.275376
0.0275138
0.258119
0.510667
0.307736
0.0966215
0.331289
0.548956
0.302469
0.148132
0.456918
0.507934
0.511441
0.555732
0.528716
0.465837
0.4834
0.539856
0.537342
0.501553
0.502333
0.528135
0.532321
0.515983
0.509567
0.519888
0.528727
0.524091
0.514142
0.513395
0.522632
0.527887
0.520899
0.512302
0.515693
0.52586
0.526584
0.51671
0.512072
0.519897
0.527572
0.523161
0.513949
0.514291
0.523291
0.526866
0.519705
0.513226
0.517513
0.525684
0.524891
0.516633
0.514038
0.520993
0.52682
0.522649
0.514396
0.514371
0.524137
0.529708
0.519554
0.507033
0.515839
0.537216
0.532574
0.502372
0.498516
0.533595
0.548782
0.522267
0.511497
0.521739
0.489168
0.438574
0.461895
0.515592
0.487461
0.478084
0.581454
0.472671
-0.0375584
-0.366589
-0.0165361
0.51498
0.605789
0.513374
0.609157
0.515139
-0.039233
-0.404919
-0.0390107
0.517684
0.609111
0.510742
0.611299
0.521106
-0.0393179
-0.410449
-0.041901
0.519496
0.611832
0.511511
0.610721
0.521938
-0.0371041
-0.411427
-0.0470961
0.516074
0.612401
0.511209
0.60975
0.525931
-0.0310092
-0.412124
-0.0534141
0.513022
0.613918
0.512202
0.609851
0.527595
-0.029458
-0.413027
-0.0552273
0.512427
0.61473
0.51374
0.610614
0.528442
-0.0236927
-0.406085
-0.0620993
0.494359
0.609981
0.519502
0.59609
0.538564
0.155847
0.380771
0.271993
0.216212
0.416625
0.479966
0.15639
-0.0410894
0.271903
0.599592
0.38919
-0.021217
0.0374775
0.4712
0.587335
0.206773
-0.062462
0.205183
0.584873
0.47698
0.0531116
-0.0164386
0.378338
0.613198
0.316395
-0.0428467
0.103946
0.524779
0.553913
0.145283
-0.0548001
0.269856
0.605916
0.422596
0.00995773
0.0197988
0.436341
0.601776
0.255022
-0.0561473
0.159809
0.561751
0.514626
0.092895
-0.0373114
0.329207
0.613276
0.366216
-0.0226115
0.0591867
0.481992
0.577975
0.19263
-0.0693224
0.205275
0.582515
0.460905
0.0273218
-0.034504
0.36701
0.589898
0.295121
-0.0359692
0.0795854
0.40009
0.465888
0.31104
0.222627
0.250761
0.351529
0.505759
0.467216
0.0990568
-0.127641
0.16509
0.506437
0.408608
0.247123
0.426143
0.516312
0.144854
-0.142586
0.148667
0.51809
0.419216
0.240651
0.419215
0.520268
0.152803
-0.137193
0.151925
0.519201
0.416669
0.235351
0.414985
0.520688
0.15644
-0.136162
0.149199
0.518465
0.419198
0.235324
0.412362
0.522331
0.161996
-0.134086
0.147269
0.517641
0.418532
0.231027
0.407725
0.523118
0.167252
-0.129046
0.150045
0.517977
0.416126
0.225904
0.401356
0.521883
0.179143
-0.113201
0.146403
0.504461
0.436685
0.266149
0.377081
0.457194
0.267761
0.461695
0.146236
-0.0204493
0.23719
0.340043
-0.0787656
-0.339638
0.0718904
0.498065
0.204641
-0.352587
-0.270187
0.323727
0.480732
-0.0472968
-0.421015
-0.0493712
0.478642
0.328521
-0.261678
-0.358638
0.19102
0.518037
0.104882
-0.39519
-0.191047
0.39456
0.435397
-0.13311
-0.412045
0.0393329
0.507419
0.252719
-0.322149
-0.309149
0.271094
0.502213
0.0191251
-0.415356
-0.114996
0.445912
0.381453
-0.206518
-0.389426
0.121139
0.518833
0.176321
-0.365488
-0.252254
0.336886
0.472953
-0.0584405
-0.419228
-0.0408319
0.477927
0.317379
-0.263539
-0.34202
0.197914
0.495998
0.102655
-0.340202
-0.170906
0.31748
0.484186
0.268981
0.000185105
-0.151157
-0.101061
0.20081
0.491393
0.491426
0.438173
0.567665
0.497333
-0.00569297
-0.324706
0.0291577
0.52143
0.5494
0.428633
0.554162
0.519877
0.0160803
-0.330405
0.0151312
0.519287
0.554812
0.43207
0.555114
0.520411
0.0153449
-0.333442
0.0117082
0.518804
0.557085
0.433189
0.554787
0.523088
0.0201498
-0.333667
0.00618299
0.515917
0.558877
0.434394
0.554873
0.52546
0.0223049
-0.336232
0.00177983
0.515176
0.561402
0.436866
0.556161
0.525508
0.021292
-0.337821
-0.00116891
0.512756
0.566751
0.445727
0.548524
0.51329
0.0592648
-0.260461
-0.00304951
0.401025
0.515753
0.342562
0.332697
0.253996
0.422703
0.514749
0.225063
0.0218883
0.303542
0.609772
0.405795
0.0116719
0.0687561
0.484707
0.592524
0.222316
-0.0374908
0.222835
0.590596
0.485246
0.0739013
0.00668503
0.389976
0.617959
0.329984
-0.0186414
0.123612
0.531911
0.560572
0.164347
-0.0302691
0.284227
0.610727
0.433455
0.0325199
0.0411191
0.445647
0.60734
0.270785
-0.0326302
0.176303
0.567735
0.523668
0.114063
-0.0140088
0.341456
0.619478
0.382492
0.00578945
0.0838031
0.493429
0.590307
0.224631
-0.0243777
0.236372
0.594586
0.48807
0.0964071
0.0469435
0.409345
0.60341
0.346797
0.0738049
0.190147
0.483729
0.576992
0.439169
0.197616
-0.0476971
-0.0859473
0.20381
0.505371
0.498526
0.432255
0.560959
0.503739
0.0166962
-0.29525
0.050757
0.522938
0.53031
0.40117
0.534989
0.520477
0.0371352
-0.299791
0.0377698
0.519701
0.531478
0.39812
0.530831
0.520884
0.0410682
-0.297069
0.0376218
0.51903
0.531432
0.396828
0.529022
0.522716
0.0454823
-0.296792
0.0332259
0.516528
0.531915
0.395502
0.52673
0.524491
0.050025
-0.294506
0.0330839
0.515785
0.529691
0.392006
0.524328
0.523675
0.0511813
-0.289806
0.0372353
0.512597
0.524613
0.39309
0.518823
0.507805
0.0649389
-0.239454
0.0368171
0.432722
0.512752
0.190262
0.568087
0.553778
0.490945
0.551733
0.566328
0.50706
0.492638
0.526003
0.53622
0.522185
0.517214
0.518952
0.516954
0.518663
0.524254
0.522264
0.514826
0.515392
0.523467
0.52538
0.518163
0.513917
0.519415
0.525736
0.522975
0.515576
0.515102
0.5223
0.525906
0.520171
0.51408
0.51734
0.524856
0.524648
0.516985
0.514021
0.520457
0.526192
0.5222
0.514598
0.515249
0.52341
0.526398
0.518959
0.512429
0.517799
0.52742
0.525545
0.514029
0.511145
0.522633
0.531436
0.52311
0.508172
0.508632
0.527974
0.538451
0.511241
0.473978
0.49647
0.566165
0.550543
0.412799
0.348157
0.466302
0.53978
0.415488
0.350099
0.49769
0.490377
0.106964
-0.145605
0.148501
0.514445
0.441205
0.288982
0.457003
0.518624
0.116914
-0.182443
0.121816
0.51996
0.449636
0.284087
0.451217
0.520655
0.119311
-0.185783
0.117239
0.519872
0.453237
0.287009
0.45183
0.520965
0.119809
-0.187668
0.113325
0.518535
0.455158
0.287554
0.450654
0.52247
0.12271
-0.189074
0.108846
0.517285
0.457781
0.290282
0.452236
0.52241
0.11989
-0.192147
0.10855
0.517473
0.45758
0.294249
0.456996
0.516222
0.108783
-0.186557
0.123532
0.511625
0.439471
0.288598
0.437823
0.485149
0.176442
0.228213
0.570497
0.363237
0.026386
0.116613
0.479255
0.556097
0.222036
-0.0264233
0.199047
0.565259
0.498521
0.0884972
-0.0230674
0.346434
0.614359
0.352605
-0.0259262
0.0796992
0.502582
0.572336
0.178466
-0.0553316
0.240724
0.598086
0.451666
0.032964
0.00363078
0.409896
0.609771
0.287358
-0.0481793
0.133107
0.544895
0.536803
0.121487
-0.0454261
0.299492
0.611685
0.398196
-0.00432612
0.0391355
0.459937
0.593772
0.228603
-0.0602585
0.182658
0.57394
0.495425
0.0694414
-0.0339845
0.346501
0.610572
0.342252
-0.0387715
0.0600613
0.478695
0.559544
0.170566
-0.0915683
0.176809
0.556613
0.436733
-0.035296
-0.150699
0.270349
0.6251
0.546932
0.432948
0.561482
0.492832
-0.0302481
-0.379061
-0.0261652
0.515115
0.603235
0.503101
0.601211
0.515678
-0.0332948
-0.396531
-0.0309534
0.519596
0.601564
0.498095
0.60192
0.520713
-0.0305537
-0.397541
-0.0325549
0.519234
0.601439
0.496864
0.600535
0.52167
-0.0278117
-0.397155
-0.035457
0.517251
0.6019
0.496561
0.599714
0.524342
-0.0232139
-0.396496
-0.0385772
0.515199
0.601617
0.496015
0.59928
0.52422
-0.0235332
-0.394368
-0.0335659
0.516309
0.597223
0.495429
0.602362
0.516507
-0.0376071
-0.386533
-0.00593731
0.521608
0.57245
0.477391
0.595776
0.504743
-0.0353194
0.461156
0.527495
0.0904681
-0.368198
-0.211108
0.334008
0.466147
-0.0176407
-0.392866
-0.0781561
0.449238
0.360347
-0.21792
-0.375048
0.143881
0.518369
0.150967
-0.37782
-0.228878
0.362288
0.458914
-0.0920228
-0.418411
-0.00403813
0.495591
0.290692
-0.294634
-0.33536
0.232767
0.512198
0.0616171
-0.407297
-0.154085
0.421351
0.4105
-0.169422
-0.402916
0.0784979
0.514874
0.2175
-0.344252
-0.283846
0.303386
0.490854
-0.0171457
-0.419065
-0.0810202
0.463557
0.356267
-0.232709
-0.375121
0.151724
0.518554
0.152375
-0.369113
-0.232722
0.342732
0.464003
-0.0455065
-0.391426
-0.0511341
0.431629
0.311319
-0.19308
-0.251004
0.253135
0.540553
0.232063
-0.0373474
0.227332
0.518354
0.32892
0.0976663
0.305242
0.515823
0.261937
0.00926886
0.247738
0.516078
0.319371
0.0984923
0.317546
0.519769
0.253177
0.00401571
0.251462
0.519761
0.318765
0.0973361
0.31801
0.520106
0.251838
0.00123867
0.248998
0.52004
0.321507
0.0989655
0.317478
0.520537
0.253524
0.000366992
0.245929
0.51976
0.324297
0.100341
0.316868
0.520549
0.253439
-0.00136347
0.244263
0.519349
0.324941
0.103971
0.322065
0.519237
0.245775
-0.00236697
0.251026
0.516473
0.311599
0.104631
0.33782
0.518276
0.230042
0.00704657
0.280098
0.507528
0.21005
0.533861
0.579803
0.249171
-0.0670675
0.0822794
0.49049
0.580076
0.233248
-0.0296467
0.193538
0.565776
0.505709
0.100666
-0.0101388
0.354143
0.617434
0.359394
-0.0118344
0.0932289
0.508356
0.575766
0.189052
-0.039479
0.251494
0.601751
0.457991
0.047908
0.0195989
0.417655
0.613392
0.298075
-0.0299968
0.147204
0.549815
0.542442
0.137129
-0.0261125
0.310378
0.615625
0.408299
0.0161169
0.0582041
0.468078
0.599368
0.24617
-0.033031
0.202207
0.580432
0.506837
0.101046
0.00424014
0.36725
0.619473
0.371362
0.0183946
0.110693
0.500856
0.591746
0.259297
0.0195701
0.227347
0.55361
0.512093
0.212301
0.179825
0.480049
0.518402
0.0181109
-0.354508
-0.0219749
0.520203
0.615271
0.510943
0.602708
0.520517
-0.0319007
-0.412001
-0.0516821
0.516181
0.617712
0.518717
0.614172
0.519856
-0.0439157
-0.416941
-0.0467001
0.519162
0.615653
0.517403
0.615369
0.521075
-0.0437699
-0.417677
-0.0479864
0.518614
0.616267
0.517479
0.615038
0.523072
-0.0403834
-0.417794
-0.0518356
0.51617
0.616618
0.517523
0.614727
0.524533
-0.0385758
-0.417701
-0.0522294
0.516017
0.616099
0.518316
0.616188
0.520869
-0.045343
-0.41543
-0.0414979
0.519104
0.610635
0.520324
0.621192
0.510555
-0.0524661
-0.390881
-0.0166648
0.500955
0.545445
0.242614
0.483436
0.506811
0.476718
0.50535
0.518333
0.496333
0.498625
0.520888
0.523336
0.514014
0.516179
0.523291
0.52254
0.518367
0.518398
0.521217
0.522553
0.521054
0.518403
0.518069
0.521032
0.522988
0.520363
0.516865
0.518241
0.522691
0.523111
0.518455
0.515959
0.519891
0.52432
0.522056
0.51635
0.516267
0.522213
0.524812
0.519694
0.514797
0.518083
0.524756
0.524194
0.516558
0.513532
0.520764
0.527807
0.522579
0.5113
0.512023
0.526301
0.531861
0.515728
0.501128
0.515474
0.539476
0.530268
0.499022
0.50317
0.540298
0.539086
0.498248
0.505801
0.556471
0.537433
0.481013
0.523241
0.510813
0.221347
-0.0128925
0.20469
0.492429
0.372645
0.197292
0.385537
0.518445
0.186765
-0.0963021
0.174259
0.516917
0.392047
0.199461
0.388633
0.519549
0.180476
-0.0993662
0.17832
0.519848
0.391333
0.199309
0.389932
0.520551
0.181139
-0.0988076
0.178278
0.519688
0.391259
0.197937
0.387875
0.521056
0.183917
-0.0981436
0.176249
0.518913
0.392115
0.197231
0.386223
0.521523
0.185777
-0.0970821
0.176855
0.518991
0.390802
0.196573
0.387144
0.52018
0.183127
-0.0937653
0.183463
0.51997
0.393543
0.210552
0.39434
0.506877
0.180096
-0.0769599
0.160524
0.474674
0.465826
-0.0289799
0.169996
0.369191
0.561568
0.476243
0.105213
-0.032986
0.3076
0.606789
0.385043
-0.0048245
0.0618078
0.480027
0.585893
0.212427
-0.0485528