# vtk DataFile Version 3.0
PFC-RG simulation results
ASCII
DATASET STRUCTURED_POINTS
DIMENSIONS 128 128 1
ORIGIN 0 0 0
SPACING 1 1 1
POINT_DATA 16384
SCALARS psi double
lOOKUP_TABLE default
0.481349
0.529463
0.480721
0.452576
0.494486
0.51723
0.502565
0.508676
0.531274
0.526366
0.504703
0.507117
0.530003
0.535769
0.516565
0.503889
0.517163
0.535392
0.530514
0.510422
0.506074
0.524007
0.537101
0.525618
0.507514
0.510365
0.530959
0.538752
0.521377
0.504198
0.513576
0.539431
0.545161
0.520126
0.495771
0.512413
0.555476
0.558206
0.503402
0.473317
0.536301
0.592856
0.528235
0.440372
0.502329
0.620237
0.570884
0.437299
0.467705
0.612542
0.602785
0.470346
0.463036
0.574288
0.597995
0.508605
0.46863
0.526486
0.573085
0.542757
0.489828
0.486935
0.530889
0.559662
0.539293
0.506812
0.501664
0.513307
0.516662
0.504255
0.485086
0.474544
0.496416
0.543377
0.495242
0.301247
0.221539
0.418753
0.585079
0.51056
0.475014
0.60709
0.505528
0.022184
-0.234773
0.131369
0.576915
0.572416
0.453308
0.5941
0.568732
0.0287671
-0.381574
-0.0418888
0.531534
0.631763
0.510322
0.598598
0.537106
-0.00239677
-0.405474
-0.0739342
0.500305
0.622355
0.521372
0.611209
0.53411
-0.018186
-0.413178
-0.0665286
0.506673
0.619158
0.519012
0.613016
0.529649
-0.0270587
-0.41249
-0.0590156
0.509058
0.623551
0.529563
0.60512
0.510846
0.0120029
-0.326744
-0.0603717
0.412369
0.590436
-0.0022322
0.0755518
0.302352
0.556248
0.479667
0.091961
-0.0480844
0.301345
0.602192
0.370817
-0.0278512
0.0440397
0.474047
0.577791
0.189584
-0.0750952
0.202927
0.583041
0.463256
0.0333317
-0.0266018
0.377481
0.605883
0.297787
-0.0589166
0.0986714
0.520451
0.540305
0.128764
-0.0644192
0.262428
0.592066
0.407649
0.00432107
0.0133981
0.415357
0.579692
0.254289
-0.0522742
0.129839
0.514785
0.506568
0.128207
-0.032099
0.257685
0.521681
0.369161
0.10722
0.151213
0.360122
0.385439
0.300187
0.306733
0.291962
0.18169
0.205448
0.425561
0.484682
0.22271
0.0407285
0.259499
0.556688
0.46214
0.124225
0.0832094
0.409802
0.579147
0.315776
0.0599038
0.252137
0.59026
0.507813
0.12418
0.0490748
0.335034
0.478293
0.397325
0.395458
0.412041
0.269412
0.194987
0.370529
0.472116
0.268393
0.146948
0.373884
0.503214
0.240942
0.076556
0.353318
0.549546
0.243884
-0.0331027
0.21902
0.513007
0.333084
0.115647
0.33168
0.529834
0.243365
-0.0423789
0.198035
0.511486
0.353114
0.124801
0.32098
0.520985
0.253499
-0.0149648
0.22447
0.516109
0.335929
0.105693
0.312426
0.520316
0.2606
0.000248431
0.234234
0.514548
0.342402
0.120815
0.300943
0.497565
0.305981
0.0740385
0.167921
0.379714
0.459279
-0.204671
-0.202319
0.0797664
0.447631
0.352224
-0.178113
-0.367101
0.107322
0.509057
0.187214
-0.35653
-0.255591
0.332879
0.474299
-0.0569385
-0.41927
-0.0388781
0.481737
0.318307
-0.270273
-0.352444
0.201242
0.514029
0.0909818
-0.398287
-0.1809
0.397574
0.421672
-0.145274
-0.406239
0.0481971
0.496237
0.230301
-0.325552
-0.295404
0.266739
0.471841
0.00185041
-0.400032
-0.111568
0.402881
0.336832
-0.186703
-0.340304
0.0889337
0.398306
0.130995
-0.22702
-0.134069
0.173418
0.218355
0.0780673
0.0309621
-0.00623966
-0.101434
-0.0180593
0.25138
0.261712
-0.10495
-0.295021
0.0447303
0.421364
0.229376
-0.257582
-0.281002
0.216559
0.473809
0.100712
-0.279318
-0.0240497
0.445621
0.318628
-0.215764
-0.278167
0.208706
0.530813
0.492031
0.432637
0.307239
-0.0518284
-0.269276
0.0146704
0.435302
0.522866
0.48134
0.573838
0.445234
-0.0830455
-0.380498
-0.00277693
0.503906
0.556266
0.459261
0.579933
0.509753
-0.0327885
-0.394321
-0.0316919
0.515805
0.591066
0.474334
0.582365
0.533334
0.00101082
-0.388354
-0.0500106
0.506307
0.600506
0.489988
0.592005
0.531356
-0.00845293
-0.393805
-0.0478085
0.509696
0.60438
0.496681
0.591864
0.522398
-0.00372587
-0.374759
-0.0548004
0.483847
0.631444
0.535607
0.489805
0.411014
0.285024
0.191033
0.114711
0.239939
0.498393
0.489487
0.164624
0.0344923
0.346476
0.615594
0.393221
0.020228
0.0910605
0.495773
0.592613
0.228492
-0.0194751
0.240801
0.59707
0.485951
0.0838434
0.027294
0.405641
0.620077
0.331187
-0.00375867
0.145008
0.541458
0.557664
0.168242
-0.00958464
0.304914
0.612393
0.425478
0.0417243
0.0681834
0.459679
0.595588
0.264294
-0.00584114
0.20789
0.559291
0.490472
0.122968
0.0483345
0.37106
0.562028
0.331683
0.0822522
0.188997
0.421789
0.424357
0.297367
0.270491
0.26291
0.204329
0.263181
0.43982
0.415581
0.151122
0.0559032
0.319821
0.546217
0.349501
-0.00745454
0.0142228
0.406582
0.589144
0.269404
-0.0715677
0.105253
0.485523
0.404329
0.0307802
0.0481392
0.392939
0.470219
0.329857
0.38886
0.439086
0.13922
-0.116995
0.123599
0.477292
0.429438
0.275595
0.420174
0.48644
0.122092
-0.155961
0.126777
0.505781
0.456399
0.317968
0.479076
0.521214
0.100529
-0.210418
0.0963856
0.51823
0.476258
0.315173
0.4695
0.531941
0.119871
-0.209805
0.0845911
0.51328
0.472264
0.301307
0.454301
0.527497
0.128058
-0.19299
0.099477
0.513287
0.460377
0.293021
0.450073
0.519858
0.129409
-0.178743
0.0931379
0.483731
0.470053
0.330434
0.396063
0.457012
0.389528
0.508351
0.549124
0.470428
0.42597
0.489399
0.555051
0.547962
0.514224
0.506895
0.520624
0.531315
0.526137
0.510631
0.506431
0.521996
0.534412
0.522973
0.505023
0.509694
0.530169
0.533971
0.515191
0.503936
0.517889
0.534945
0.528725
0.509798
0.507655
0.524948
0.535272
0.523834
0.508989
0.512848
0.529944
0.535011
0.520268
0.507411
0.516534
0.537513
0.54019
0.518226
0.499793
0.516602
0.552163
0.551653
0.505103
0.482235
0.537123
0.58406
0.527307
0.451105
0.506787
0.61257
0.566493
0.4393
0.466108
0.609491
0.607404
0.475761
0.453645
0.562487
0.605786
0.516295
0.438084
0.479882
0.580198
0.589991
0.438995
0.291178
0.384989
0.583305
0.564368
0.458925
0.547536
0.561618
0.1851
-0.130207
0.130454
0.552692
0.548994
0.394061
0.509467
0.532676
0.0972192
-0.249436
0.0520074
0.525957
0.548011
0.409455
0.524257
0.519369
0.0711027
-0.251931
0.0627819
0.51663
0.516483
0.379707
0.515101
0.524412
0.0681204
-0.271141
0.0431328
0.51264
0.520732
0.378009
0.513288
0.529756
0.0678842
-0.285056
0.0291675
0.511104
0.529774
0.391798
0.52302
0.524308
0.0526551
-0.289111
0.0374942
0.512021
0.525191
0.3966
0.518241
0.495678
0.0521966
-0.226915
0.0835039
0.492114
0.539731
0.270955
0.576542
0.368757
-0.00356012
0.0670937
0.470271
0.569926
0.205635
-0.0609852
0.186594
0.569164
0.487825
0.0623214
-0.041282
0.343319
0.610489
0.336103
-0.0469398
0.0682246
0.499753
0.564221
0.159656
-0.0731257
0.234094
0.594776
0.438665
0.0138621
-0.00767663
0.407066
0.602118
0.270404
-0.0626748
0.128208
0.540633
0.523776
0.105884
-0.0537682
0.294114
0.599935
0.384203
-0.00939482
0.0358635
0.443875
0.572477
0.223837
-0.0555835
0.164894
0.539479
0.485939
0.0936518
-0.0309195
0.290772
0.539771
0.347521
0.0653205
0.130739
0.382487
0.419841
0.288848
0.245028
0.271801
0.274775
0.330067
0.445788
0.434858
0.279461
0.20932
0.292955
0.394494
0.464694
0.460342
0.358733
0.374352
0.571935
0.522539
0.0245832
-0.305678
0.0318619
0.51989
0.54342
0.411368
0.541368
0.537486
0.0520094
-0.313811
0.00937682
0.5125
0.551211
0.425702
0.547417
0.518747
0.0180506
-0.341014
-0.00802491
0.507224
0.565839
0.449484
0.562529
0.522122
0.0142101
-0.348656
-0.0139473
0.50802
0.568459
0.446784
0.561034
0.530327
0.0255835
-0.342126
-0.0102312
0.508784
0.562873
0.439563
0.557014
0.524915
0.0212218
-0.331576
0.00909704
0.510012
0.548451
0.439629
0.564195
0.506042
0.00140841
-0.290338
0.0913479
0.518469
0.381202
0.00304162
0.451752
0.211196
-0.284766
-0.209984
0.318921
0.454153
-0.0384888
-0.403908
-0.0654829
0.46176
0.353456
-0.2291
-0.372502
0.153027
0.519212
0.144736
-0.379586
-0.223324
0.366556
0.45563
-0.0974954
-0.417049
0.00263445
0.496807
0.28321
-0.299829
-0.329896
0.239849
0.507787
0.050374
-0.408992
-0.145252
0.423481
0.398214
-0.180048
-0.397616
0.0863548
0.504399
0.196613
-0.34723
-0.269342
0.30182
0.461759
-0.0380171
-0.406733
-0.0714885
0.43115
0.312737
-0.223826
-0.332835
0.13092
0.41611
0.10413
-0.260953
-0.129791
0.220404
0.261012
0.0575975
-0.0403443
-0.00595875
0.0589806
0.182833
0.287936
0.169792
-0.0522124
-0.0298338
0.227683
0.432122
0.461521
0.28147
-0.0310746
-0.0992145
0.230591
0.478807
0.302241
0.13598
0.350263
0.479655
0.139274
-0.128244
0.166549
0.524193
0.405029
0.209641
0.389524
0.502942
0.143702
-0.13899
0.156873
0.520396
0.40182
0.20327
0.383811
0.515097
0.178759
-0.10843
0.162697
0.515561
0.403279
0.209077
0.389391
0.522537
0.184703
-0.111871
0.154377
0.514979
0.412381
0.221176
0.399035
0.523499
0.174217
-0.124866
0.148162
0.513288
0.414399
0.233365
0.412679
0.517342
0.156934
-0.120292
0.16838
0.506559
0.377723
0.215035
0.445122
0.564437
0.113763
0.230585
0.542231
0.342886
0.00485554
0.103709
0.493146
0.578593
0.233815
-0.0133197
0.219716
0.578928
0.507478
0.113166
0.0144996
0.370872
0.621067
0.366882
0.0086135
0.113987
0.516814
0.578668
0.200747
-0.0187302
0.267848
0.606651
0.460823
0.0607275
0.0394123
0.430512
0.615169
0.300891
-0.0156769
0.16553
0.557567
0.540261
0.141057
-0.00833077
0.327639
0.616181
0.399955
0.0225429
0.0814503
0.48114
0.587975
0.235967
-0.0136103
0.23012
0.574166
0.474331
0.10349
0.0579277
0.395499
0.566673
0.318494
0.0791488
0.206477
0.451716
0.452503
0.296745
0.232042
0.260502
0.322199
0.419977
0.439981
0.269821
0.131792
0.258171
0.456019
0.505588
0.472513
0.30352
-0.0676679
-0.244883
0.0879526
0.51419
0.56824
0.503366
0.610459
0.502004
-0.0532052
-0.398728
-0.0219898
0.524373
0.603572
0.504162
0.609281
0.518637
-0.0447491
-0.41063
-0.0342706
0.526419
0.613506
0.510472
0.611232
0.52659
-0.0327243
-0.414468
-0.0547776
0.514048
0.61776
0.515626
0.611056
0.530618
-0.0244628
-0.413894
-0.0630558
0.507593
0.61642
0.514861
0.610255
0.531166
-0.0232664
-0.411478
-0.0598316
0.507819
0.614483
0.51617
0.611065
0.524064
-0.0275902
-0.398705
-0.0443944
0.505103
0.597071
0.486555
0.585787
0.582453
0.164881
0.534916
0.560826
0.460808
0.423831
0.50245
0.541673
0.510357
0.503223
0.529809
0.528088
0.501803
0.503288
0.5304
0.537122
0.515292
0.501965
0.516838
0.53498
0.528589
0.508791
0.506484
0.524505
0.534444
0.521256
0.506117
0.512546
0.530022
0.531194
0.514764
0.506871
0.519531
0.532686
0.526213
0.510988
0.510568
0.524941
0.532298
0.522542
0.511391
0.515091
0.52817
0.531493
0.520031
0.510392
0.518128
0.53539
0.536571
0.515936
0.501089
0.521317
0.553642
0.543939
0.497129
0.490624
0.552326
0.577758
0.508562
0.46458
0.545338
0.609238
0.526182
0.457299
0.544955
0.608761
0.510214
0.472751
0.565962
0.500397
0.297791
0.309426
0.430431
0.308147
0.161145
0.334483
0.512958
0.333291
0.159068
0.36001
0.519514
0.251619
0.0274298
0.277151
0.522104
0.304243
0.0846687
0.314929
0.527072
0.271646
0.0329542
0.275654
0.523155
0.305661
0.0825078
0.310491
0.524237
0.265397
0.0135316
0.253541
0.520049
0.316425
0.0833371
0.299949
0.521018
0.273303
0.0190992
0.252474
0.519181
0.314675
0.0746149
0.289363
0.519737
0.283097
0.0320527
0.260348
0.519795
0.311571
0.0696498
0.281015
0.514627
0.293103
0.0466752
0.256386
0.520548
0.358103
0.103612
0.21565
0.457937
0.452578
0.307373
0.183601
0.249023
0.472658
0.466606
0.12638
-0.0295632
0.295806
0.598868
0.374928
-0.029091
0.0367379
0.471082
0.582585
0.19513
-0.0753999
0.199305
0.583775
0.470215
0.0393119
-0.0269732
0.375905
0.610559
0.306244
-0.0550878
0.0982131
0.523514
0.548345
0.134037
-0.0640066
0.266923
0.603624
0.414757
-0.000157441
0.0143074
0.434409
0.596524
0.245858
-0.0625539
0.157719
0.558023
0.506442
0.0855043
-0.0409991
0.3243
0.604538
0.359346
-0.0235117
0.0557239
0.468938
0.563911
0.190933
-0.0651321
0.195934
0.561782
0.451673
0.0437312
-0.0122997
0.360802
0.548017
0.27936
0.045066
0.204049
0.437848
0.4507
0.439489
0.435951
0.186169
-0.0926207
0.0720521
0.474856
0.585919
0.517207
0.577974
0.474803
-0.0256946
-0.352457
-0.011552
0.505315
0.588693
0.49979
0.603063
0.51395
-0.0354975
-0.394945
-0.0287094
0.519298
0.602216
0.50307
0.605097
0.515803
-0.0381925
-0.401848
-0.0355291
0.517214
0.602708
0.498941
0.601755
0.525606
-0.0237137
-0.402669
-0.0487383
0.511255
0.607187
0.501706
0.601761
0.531346
-0.0159379
-0.404082
-0.0570817
0.50787
0.611171
0.505436
0.601694
0.53263
-0.0105847
-0.40384
-0.0688267
0.500089
0.623901
0.513555
0.577181
0.535321
0.0976312
-0.293921
-0.155572
0.290427
0.581135
-0.159508
-0.160138
0.0917977
0.4301
0.354403
-0.160566
-0.371376
0.0883605
0.505707
0.198837
-0.352611
-0.264849
0.325659
0.478816
-0.0488768
-0.419692
-0.0460227
0.480049
0.325902
-0.264234
-0.356442
0.195155
0.517698
0.10064
-0.396313
-0.186992
0.397425
0.432505
-0.137193
-0.410894
0.04367
0.507588
0.247728
-0.324958
-0.305705
0.274525
0.498584
0.0123685
-0.415813
-0.110079
0.445687
0.37322
-0.212053
-0.385673
0.123803
0.509231
0.162714
-0.365395
-0.242161
0.33334
0.448968
-0.0761942
-0.40999
-0.0292387
0.455625
0.274766
-0.269815
-0.30623
0.197819
0.415375
0.0468553
-0.246609
-0.0306305
0.279296
0.308905
0.271429
0.257092
0.0766306
-0.0629016
0.167505
0.458547
0.389238
0.260349
0.427296
0.489995
0.10614
-0.186717
0.105622
0.502422
0.444864
0.282504
0.442518
0.513703
0.125856
-0.169908
0.127432
0.514213
0.434307
0.266181
0.437879
0.516896
0.127827
-0.170868
0.126112
0.517726
0.443706
0.273481
0.44062
0.522886
0.135399
-0.172636
0.118049
0.516304
0.446872
0.269339
0.432782
0.525498
0.147369
-0.165093
0.117707
0.514689
0.444051
0.260547
0.422471
0.525703
0.159616
-0.157489
0.109002
0.507889
0.458085
0.265971
0.386132
0.511862
0.260475
-0.0404928
0.0293474
0.308112
0.463011
-0.155822
0.0339747
0.30798
0.556642
0.508634
0.156244
0.00366379
0.318718
0.613011
0.405534
0.024418
0.0827059
0.48813
0.593918
0.232582
-0.0217347
0.233485
0.593504
0.488358
0.0841684
0.0202849
0.398038
0.619793
0.333989
-0.0078535
0.135113
0.536912
0.561762
0.169936
-0.0191701
0.293273
0.613173
0.434511
0.0391295
0.051601
0.452316
0.607952
0.271731
-0.0255889
0.185659
0.571361
0.521695
0.115786
-0.00403627
0.350573
0.617812
0.375699
0.00968409
0.099328
0.501331
0.579043
0.212123
-0.0137165
0.258414
0.590789
0.453361
0.0789107
0.0741622
0.426677
0.552664
0.289581
0.120299
0.277412
0.417842
0.359135
0.350966
0.428239
0.390772
0.374063
0.521515
0.462453
-0.00247066
-0.278246
0.0817546
0.539447
0.526715
0.386726
0.521051
0.51899
0.0473507
-0.292844
0.035776
0.518599
0.538264
0.408402
0.536628
0.517658
0.0301922
-0.308233
0.0329381
0.521885
0.540947
0.410178
0.538159
0.521562
0.0369613
-0.306536
0.0261101
0.516157
0.540964
0.408993
0.536122
0.526605
0.0440376
-0.310679
0.0139827
0.511764
0.546519
0.413635
0.5372
0.529298
0.0458784
-0.31637
0.00424264
0.509131
0.553704
0.418933
0.531963
0.527817
0.0642684
-0.302222
-0.0225056
0.475357
0.583736
0.460486
0.459014
0.458582
0.310365
0.277591
0.445076
0.447635
0.415842
0.481714
0.543653
0.528147
0.500699
0.505755
0.522345
0.530449
0.525866
0.512464
0.507412
0.520968
0.533423
0.5237
0.506849
0.510554
0.528764
0.531921
0.515555
0.506365
0.51848
0.53212
0.526088
0.510478
0.509726
0.524538
0.531608
0.520211
0.508629
0.514901
0.528702
0.528353
0.515087
0.51008
0.520592
0.529982
0.524155
0.512605
0.512967
0.524658
0.530204
0.521378
0.512102
0.516887
0.528984
0.529773
0.518204
0.512174
0.521321
0.534208
0.532886
0.516037
0.502601
0.518454
0.549793
0.538003
0.476094
0.469234
0.56359
0.58658
0.424452
0.310644
0.4638
0.623713
0.527664
0.447871
0.575838
0.49096
-0.0125507
-0.303581
0.0684559
0.544777
0.550694
0.426909
0.558276
0.526713
0.022553
-0.326113
0.0173844
0.519676
0.551121
0.424357
0.548689
0.520822
0.0241272
-0.318534
0.0254149
0.521611
0.547954
0.42113
0.547067
0.521569
0.0259642
-0.322504
0.0148625
0.515691
0.550468
0.422144
0.544855
0.525993
0.0356931
-0.320368
0.00847584
0.511689
0.549981
0.417779
0.539373
0.528719
0.045028
-0.314277
0.00782793
0.50828
0.547187
0.414374
0.533343
0.526854
0.0585076
-0.294737
0.00455411
0.479248
0.523355
0.389627
0.473721
0.528546
0.30629
0.492428
0.543318
0.204382
-0.135428
0.0281866
0.477566
0.579919
0.213681
-0.0606646
0.175345
0.562286
0.497507
0.0761086
-0.039438
0.337825
0.611737
0.34557
-0.0392651
0.0690087
0.499094
0.568727
0.167978
-0.0676831
0.234693
0.596245
0.445458
0.0214364
-0.0054646
0.406938
0.607007
0.279098
-0.0583234
0.127786
0.543322
0.53217
0.11255
-0.0525686
0.297255
0.609684
0.392067
-0.0113766
0.0361174
0.458999
0.589289
0.221608
-0.0625485
0.18545
0.572569
0.485936
0.0631823
-0.0277197
0.353854
0.603051
0.32857
-0.0360651
0.0748983
0.481136
0.550687
0.176721
-0.0762537
0.166271
0.52783
0.449943
0.0638921
0.00292797
0.374396
0.53689
0.194272
-0.0602467
0.208798
0.513792
0.387962
0.232086
0.424508
0.510057
0.135254
-0.13929
0.160753
0.523119
0.415811
0.237717
0.419568
0.518117
0.143491
-0.149872
0.144026
0.52103
0.428437
0.25314
0.428638
0.518547
0.13913
-0.154912
0.139726
0.519462
0.429474
0.251502
0.424757
0.521683
0.14837
-0.153343
0.131997
0.516513
0.435307
0.255811
0.424836
0.524111
0.150877
-0.158875
0.122452
0.514599
0.442341
0.263795
0.428428
0.522599
0.146375
-0.162589
0.119253
0.509584
0.441322
0.27293
0.436886
0.514801
0.130171
-0.168031
0.121453
0.510262
0.428061
0.281381
0.443447
0.0660698
-0.37861
-0.21527
0.336939
0.465146
-0.0253387
-0.398594
-0.0788339
0.450807
0.362847
-0.215821
-0.375391
0.142119
0.518063
0.152198
-0.376898
-0.228489
0.362638
0.458547
-0.0929716
-0.417994
-0.00203677
0.496326
0.288915
-0.295928
-0.333682
0.235072
0.511611
0.0591356
-0.407628
-0.151563
0.422864
0.408518
-0.171963
-0.402064
0.0812712
0.514666
0.213784
-0.346137
-0.280974
0.305972
0.487111
-0.0239166
-0.419282
-0.0744038
0.464471
0.34478
-0.24266
-0.368289
0.163111
0.50908
0.127197
-0.375221
-0.212701
0.352215
0.442153
-0.0687113
-0.390637
-0.0482466
0.418553
0.314919
-0.126346
-0.140746
0.30307
0.428702
-0.0439403
-0.378811
-0.0203776
0.513302
0.597307
0.501977
0.595001
0.493945
-0.0570354
-0.40516
-0.0294005
0.520534
0.604758
0.507741
0.610376
0.51816
-0.042525
-0.408704
-0.0367598
0.520852
0.607433
0.506493
0.607763
0.518525
-0.039578
-0.407504
-0.0390775
0.519268
0.608987
0.506949
0.607281
0.524494
-0.0297654
-0.407269
-0.0489838
0.513188
0.610375
0.506743
0.605231
0.52894
-0.0212428
-0.405268
-0.0538808
0.50934
0.609454
0.505676
0.603921
0.528606
-0.0196028
-0.399876
-0.0485114
0.506016
0.59935
0.501112
0.60693
0.530428
-0.0121218
-0.362721
0.0101911
0.513617
0.46003
0.063528
0.455648
0.337601
0.0624197
0.156183
0.492872
0.555141
0.232991
-0.000605743
0.217472
0.569567
0.508599
0.116091
0.00657734
0.360308
0.619045
0.367674
0.00239342
0.104044
0.512083
0.578639
0.197753
-0.0270195
0.260088
0.604399
0.461314
0.0572619
0.0308257
0.423588
0.615032
0.302664
-0.0204363
0.155859
0.553235
0.544088
0.142451
-0.0177183
0.316476
0.617255
0.409265
0.0205845
0.0650362
0.472536
0.599241
0.244536
-0.0309327
0.208419
0.583864
0.501924
0.0944858
0.00775656
0.376694
0.616976
0.355338
0.0125273
0.125614
0.511518
0.575325
0.2352
0.0232827
0.258002
0.578258
0.505636
0.179249
0.127129
0.408762
0.512893
0.213976
-0.000325501
0.244045
0.493441
0.296236
0.0799183
0.296117
0.509036
0.27719
0.0562049
0.290966
0.516323
0.281023
0.0534396
0.289807
0.52019
0.285414
0.0564226
0.292535
0.519654
0.27644
0.0403136
0.279497
0.520786
0.293061
0.0618444
0.292982
0.520475
0.279292
0.0392493
0.274381
0.520337
0.297604
0.0614658
0.287743
0.520408
0.28294
0.0358257
0.266076
0.519652
0.305375
0.0676041
0.2889
0.520043
0.280555
0.0297561
0.260144
0.518506
0.309889
0.0763869
0.296786
0.520384
0.275144
0.0251002
0.254418
0.509619
0.310726
0.101155
0.334564
0.549641
0.300558
0.153677
0.457503
0.507476
0.512221
0.556173
0.527947
0.465373
0.484305
0.541113
0.537316
0.500215
0.501465
0.528977
0.53357
0.515512
0.507844
0.519511
0.530287
0.525016
0.51275
0.511697
0.523206
0.529749
0.520981
0.51027
0.514567
0.527337
0.528275
0.515783
0.509783
0.519737
0.529709
0.524086
0.512063
0.512467
0.524268
0.528932
0.519515
0.511078
0.516699
0.527261
0.526222
0.515683
0.512379
0.521078
0.528254
0.523158
0.513388
0.513484
0.52456
0.530642
0.519684
0.50643
0.515628
0.537806
0.533212
0.502628
0.498684
0.533511
0.548638
0.524434
0.516143
0.521274
0.478607
0.428296
0.463937
0.525423
0.494722
0.483459
0.585612
0.467409
-0.0492858
-0.368719
-0.0071645
0.521231
0.604712
0.514094
0.611627
0.510507
-0.0479017
-0.40563
-0.0320794
0.521596
0.608242
0.511406
0.612762
0.51789
-0.0446568
-0.41093
-0.0382418
0.521552
0.611652
0.512049
0.611509
0.520842
-0.0390551
-0.412096
-0.0467415
0.516405
0.612832
0.511813
0.610176
0.526484
-0.030398
-0.412843
-0.05557
0.511808
0.614659
0.512911
0.609965
0.529226
-0.0268968
-0.413457
-0.0588399
0.510291
0.615652
0.514362
0.61019
0.530207
-0.0202503
-0.40598
-0.0660239
0.491675
0.610772
0.519961
0.594608
0.539985
0.163876
0.379043
0.266401
0.21473
0.418428
0.47879
0.152727
-0.0416048
0.274644
0.599873
0.385037
-0.0249678
0.0379707
0.473002
0.585611
0.202195
-0.0650876
0.206012
0.58539
0.474123
0.0489119
-0.0183271
0.378635
0.612463
0.313212
-0.0464901
0.102041
0.524239
0.552731
0.142414
-0.0583732
0.267402
0.605092
0.421758
0.00720699
0.0157363
0.433674
0.601548
0.254706
-0.0592411
0.155297
0.559658
0.515578
0.0929591
-0.040976
0.324682
0.612609
0.36871
-0.0225453
0.0547863
0.478283
0.57968
0.196439
-0.0699615
0.200585
0.5807
0.464975
0.0320492
-0.0351205
0.362253
0.588315
0.301907
-0.0262399
0.0793124
0.390331
0.469056
0.338924
0.251944
0.256866
0.344061
0.503113
0.466611
0.0966045
-0.123111
0.176029
0.509601
0.401909
0.243041
0.427367
0.514337
0.140888
-0.139294
0.156676
0.519673
0.4142
0.23789
0.41978
0.518879
0.150862
-0.134517
0.156852
0.520023
0.413536
0.232842
0.414171
0.520237
0.157134
-0.133497
0.151786
0.518671
0.417126
0.232265
0.409914
0.522527
0.165111
-0.130829
0.148367
0.517254
0.417175
0.227693
0.404121
0.523666
0.171962
-0.125613
0.14978
0.517162
0.415784
0.223198
0.397512
0.522494
0.184098
-0.110686
0.144524
0.503739
0.438554
0.264437
0.370912
0.456578
0.27873
0.453216
0.138747
-0.0195164
0.241282
0.338879
-0.0827899
-0.338988
0.076312
0.498828
0.200522
-0.354697
-0.266704
0.327368
0.479002
-0.0513254
-0.42095
-0.0455871
0.480168
0.325863
-0.263946
-0.357156
0.193555
0.517883
0.102972
-0.395635
-0.189796
0.39529
0.435026
-0.133339
-0.41192
0.0390608
0.507275
0.253672
-0.321244
-0.310126
0.269423
0.502863
0.0216994
-0.414863
-0.117798
0.444112
0.383982
-0.2032
-0.390729
0.116865
0.518443
0.180948
-0.362993
-0.256184
0.332523
0.47528
-0.052844
-0.419237
-0.0466615
0.475099
0.321685
-0.258536
-0.343435
0.191949
0.493527
0.108095
-0.332798
-0.172606
0.30963
0.492104
0.300464
0.0276742
-0.15099
-0.111427
0.203089
0.499982
0.494611
0.440922
0.571683
0.493359
-0.0158535
-0.327231
0.0357495
0.525511
0.548703
0.430697
0.557532
0.516379
0.00846868
-0.332007
0.0195735
0.521903
0.554672
0.433706
0.557245
0.518542
0.0111897
-0.334936
0.0128918
0.519776
0.557802
0.434776
0.556171
0.522956
0.0189027
-0.335478
0.00426634
0.515414
0.560478
0.436287
0.555821
0.526606
0.0233179
-0.338116
-0.00242898
0.513436
0.563466
0.438719
0.556467
0.527424
0.0241544
-0.339188
-0.00637248
0.510516
0.569033
0.446891
0.54766
0.516327
0.0657414
-0.259899
-0.0104844
0.39643
0.520066
0.335678
0.32936
0.257499
0.426563
0.513677
0.2228
0.0236727
0.30738
0.610456
0.403735
0.0120522
0.0729018
0.487891
0.591682
0.220942
-0.0351597
0.227062
0.592107
0.484158
0.074497
0.0102361
0.393002
0.618299
0.330153
-0.0160874
0.126891
0.533267
0.561026
0.166501
-0.0270151
0.285956
0.611183
0.435381
0.0360702
0.0433356
0.445718
0.608331
0.274398
-0.0293238
0.176499
0.567129
0.526116
0.118341
-0.0125753
0.339705
0.619498
0.386395
0.00896174
0.0823538
0.490887
0.591951
0.228601
-0.0240839
0.232791
0.592848
0.490369
0.0985132
0.0453632
0.405821
0.601855
0.349178
0.0775051
0.188323
0.475563
0.575207
0.450998
0.207609
-0.0523404
-0.0912901
0.210973
0.512872
0.49533
0.427316
0.560147
0.499921
0.0107595
-0.29256
0.0605096
0.526697
0.52628
0.398902
0.535572
0.517235
0.0324015
-0.297719
0.0445934
0.522096
0.528717
0.396374
0.530787
0.519165
0.0392359
-0.295335
0.0410816
0.519926
0.529724
0.39502
0.52795
0.522546
0.0468044
-0.294855
0.0340065
0.51609
0.530848
0.393359
0.524569
0.525439
0.053929
-0.292266
0.0317882
0.51426
0.529222
0.389924
0.521616
0.525381
0.0565223
-0.287923
0.0341402
0.510509
0.525157
0.391488
0.515773
0.510343
0.0723535
-0.237048
0.0315101
0.428135
0.512558
0.187314
0.567477
0.555212
0.490624
0.54986
0.565909
0.508133
0.492848
0.52502
0.535878
0.52311
0.517863
0.518202
0.515939
0.519023
0.525509
0.522434
0.513534
0.514588
0.524424
0.526589
0.517611
0.512317
0.519208
0.527243
0.52377
0.514271
0.513635
0.522936
0.527601
0.520162
0.512285
0.51651
0.526211
0.525962
0.516143
0.51232
0.520479
0.527758
0.522777
0.513316
0.514128
0.524073
0.52763
0.518836
0.511319
0.517469
0.52815
0.526064
0.513806
0.510817
0.522511
0.531412
0.52352
0.508895
0.508388
0.526698
0.538269
0.512517
0.474086
0.495267
0.566734
0.550923
0.407136
0.339763
0.463418
0.539897
0.413228
0.350746
0.503016
0.488854
0.0960008
-0.151704
0.152574
0.517793
0.44049
0.292157
0.462491
0.516098
0.108239
-0.185266
0.12595
0.522025
0.448739
0.286498
0.455124
0.518873
0.113525
-0.187917
0.119227
0.521012
0.453392
0.289086
0.454267
0.520348
0.116997
-0.189816
0.112406
0.518624
0.456743
0.28987
0.452057
0.522859
0.12223
-0.191557
0.105237
0.516422
0.460611
0.292891
0.452814
0.523551
0.121373
-0.194448
0.103373
0.515969
0.460835
0.296286
0.456351
0.517738
0.112017
-0.188051
0.117811
0.509639
0.442381
0.289457
0.435516
0.485413
0.179235
0.225748
0.56918
0.361043
0.0226073
0.115017
0.480527
0.555643
0.218491
-0.028349
0.201005
0.566627
0.495559
0.0844271
-0.0233772
0.348687
0.614087
0.34881
-0.0290174
0.0800059
0.503684
0.570749
0.174902
-0.0576111
0.240634
0.597988
0.449777
0.0300429
0.0014558
0.409028
0.609242
0.285889
-0.0508548
0.130414
0.543645
0.536729
0.120499
-0.0484494
0.296329
0.610925
0.399054
-0.005259
0.0355062
0.457018
0.594322
0.230279
-0.0615845
0.178808
0.572173
0.497556
0.0716087
-0.0356728
0.342923
0.610319
0.346123
-0.0361373
0.0574908
0.474983
0.561338
0.176045
-0.0908999
0.171488
0.5538
0.439391
-0.0343816
-0.153892
0.268804
0.626658
0.549018
0.436483
0.56441
0.487968
-0.0393261
-0.378367
-0.0154092
0.521114
0.600552
0.501543
0.602005
0.51095
-0.0407009
-0.395567
-0.0227862
0.523643
0.599591
0.497239
0.602479
0.517456
-0.0352192
-0.396744
-0.0276652
0.521443
0.600243
0.496144
0.60053
0.520484
-0.0289432
-0.39641
-0.0341375
0.517453
0.601352
0.495762
0.598963
0.525024
-0.0209998
-0.395569
-0.0402061
0.51371
0.60158
0.495156
0.597927
0.526306
-0.0188272
-0.393367
-0.0374187
0.513595
0.597662
0.494761
0.600804
0.519509
-0.0314695
-0.385474
-0.0108706
0.518103
0.572415
0.476342
0.594505
0.507912
-0.0299818
0.459117
0.526858
0.0886725
-0.370903
-0.210537
0.33685
0.465208
-0.0222399
-0.393939
-0.0738384
0.451833
0.356932
-0.221764
-0.373212
0.148262
0.5184
0.147003
-0.379355
-0.22592
0.364807
0.457406
-0.0946347
-0.418116
-0.00185102
0.496188
0.289407
-0.295392
-0.334824
0.23326
0.512177
0.0618119
-0.40712
-0.154769
0.420669
0.41143
-0.16784
-0.403397
0.0762289
0.514473
0.220138
-0.34253
-0.286088
0.30046
0.492085
-0.0133592
-0.418708
-0.0849048
0.461473
0.359441
-0.229098
-0.376804
0.147185
0.51827
0.157103
-0.36663
-0.236824
0.33802
0.466397
-0.0393429
-0.391841
-0.0590669
0.426527
0.314314
-0.187631
-0.247531
0.255597
0.541613
0.231717
-0.0349549
0.232125
0.518862
0.326736
0.102253
0.313958
0.515495
0.253067
0.00538491
0.251016
0.516769
0.317034
0.101391
0.323703
0.519323
0.246968
0.00155762
0.253697
0.520147
0.317503
0.099595
0.321995
0.519851
0.248078
-0.000886584
0.249156
0.520167
0.322089
0.10114
0.319486
0.52053
0.251972
-0.00195114
0.243653
0.519629
0.32695
0.102891
0.317387
0.520748
0.253625
-0.00392179
0.239998
0.518948
0.329001
0.106488
0.321174
0.519537
0.247621
-0.00426068
0.246171
0.516019
0.316046
0.106624
0.336045
0.518715
0.23287
0.00656243
0.277078
0.50756
0.212149
0.533769
0.580985
0.250282
-0.0668792
0.083795
0.492841
0.579447
0.230146
-0.0299129
0.197173
0.567924
0.503624
0.0988143
-0.00771275
0.357857
0.617638
0.357312
-0.0113592
0.0967325
0.510646
0.575063
0.188558
-0.0372591
0.254362
0.60257
0.457849
0.0492979
0.0220491
0.418976
0.613759
0.299482
-0.0276247
0.148491
0.549924
0.543652
0.139907
-0.0243272
0.309994
0.615693
0.410915
0.0189596
0.0581594
0.46665
0.600461
0.249507
-0.0317344
0.200212
0.579175
0.509084
0.103659
0.00318507
0.364196
0.619251
0.374212
0.0193064
0.107226
0.497495
0.59328
0.262665
0.0179157
0.221069
0.549862
0.513658
0.215608
0.182367
0.480655
0.514152
0.0110753
-0.355161
-0.0148453
0.52507
0.614678
0.51212
0.60486
0.514768
-0.0418364
-0.412455
-0.0428534
0.521339
0.616434
0.518951
0.615706
0.51558
-0.0510637
-0.417157
-0.0406241
0.522564
0.614862
0.517597
0.616283
0.518694
-0.0475173
-0.417879
-0.0454624
0.519887
0.616093
0.517681
0.615332
0.522868
-0.0404352
-0.417991
-0.0529424
0.515344
0.617066
0.517747
0.61441
0.526156
-0.0355139
-0.41789
-0.0562711
0.513534
0.617038
0.518561
0.615414
0.523831
-0.0399936
-0.415471
-0.0474263
0.515476
0.611724
0.520469
0.620133
0.514256
-0.0457056
-0.38984
-0.0219863
0.496987
0.544993
0.239832
0.48161
0.508321
0.478086
0.50497
0.517838
0.496492
0.498768
0.520848
0.523273
0.513707
0.515792
0.52345
0.523041
0.518248
0.517659
0.521042
0.523341
0.521581
0.517748
0.517203
0.521347
0.524023
0.520455
0.515796
0.517656
0.523524
0.524052
0.517978
0.514764
0.519835
0.525465
0.522559
0.5154
0.515351
0.522716
0.525861
0.519635
0.513788
0.517694
0.525464
0.524807
0.516212
0.512888
0.520753
0.528263
0.522792
0.511147
0.511846
0.526228
0.531878
0.515925
0.501427
0.515506
0.539114
0.529966
0.499319
0.503802
0.540089
0.537783
0.497704
0.506592
0.555658
0.534079
0.479237
0.523855
0.507518
0.213782
-0.0148038
0.21007
0.493839
0.367148
0.194675
0.387601
0.516646
0.182317
-0.0932468
0.182721
0.518525
0.386397
0.197
0.390504
0.518204
0.176959
-0.0973545
0.184141
0.520881
0.387498
0.19744
0.390718
0.519797
0.179776
-0.0970525
0.181464
0.520101
0.389198
0.196149
0.386967
0.520972
0.185303
-0.0962124
0.17694
0.518645
0.391511
0.195167
0.383494
0.521983
0.189668
-0.0948557
0.175583
0.518245
0.391465
0.194524
0.3833
0.521096
0.188498
-0.0919631
0.180257
0.518829
0.395564
0.209155
0.390054
0.507936
0.186123
-0.0756504
0.155707
0.472994
0.470549
-0.0402137
0.160989
0.369008
0.56315
0.473364
0.101681
-0.0317969
0.311305
0.60717
0.38161
-0.0069519
0.0637199
0.482367
0.584455
0.208865