# vtk DataFile Version 3.0
PFC-RG simulation results
ASCII
DATASET STRUCTURED_POINTS
DIMENSIONS 128 128 1
ORIGIN 0 0 0
SPACING 1 1 1
POINT_DATA 16384
SCALARS psi double
lOOKUP_TABLE default
0.485751
0.532485
0.475718
0.439815
0.486905
0.521393
0.50936
0.508284
0.52624
0.52525
0.50945
0.51063
0.526584
0.530609
0.518887
0.511855
0.518899
0.527849
0.52598
0.517551
0.514941
0.52107
0.527324
0.525005
0.517562
0.515685
0.523939
0.531425
0.52581
0.513674
0.513773
0.531039
0.541994
0.527317
0.502694
0.50948
0.548336
0.558222
0.510961
0.478183
0.533081
0.588685
0.531125
0.446982
0.504494
0.6187
0.57203
0.441148
0.469245
0.611815
0.604056
0.474863
0.467658
0.575627
0.59603
0.507935
0.474474
0.534237
0.572236
0.534988
0.488523
0.495744
0.537072
0.554242
0.531765
0.511592
0.515011
0.51745
0.508557
0.501109
0.495652
0.485411
0.495101
0.537601
0.500979
0.318656
0.23547
0.422388
0.585033
0.512058
0.476373
0.60694
0.506626
0.0251064
-0.233324
0.131124
0.577572
0.574108
0.454066
0.593568
0.568634
0.0293206
-0.381445
-0.0414472
0.532783
0.63227
0.510006
0.598665
0.536199
-0.0049449
-0.405077
-0.0683456
0.504565
0.621694
0.52209
0.613513
0.527614
-0.0309385
-0.413539
-0.0519841
0.516858
0.618769
0.520736
0.616502
0.521345
-0.0419761
-0.414201
-0.0474174
0.516519
0.623269
0.5314
0.608771
0.507683
0.00157437
-0.337189
-0.0639099
0.416662
0.595445
-0.0106957
0.0799052
0.30763
0.553672
0.47798
0.098242
-0.0409042
0.301822
0.600289
0.374955
-0.0178537
0.0518755
0.476231
0.581016
0.200085
-0.0624018
0.208896
0.584732
0.471526
0.0496069
-0.0136458
0.380993
0.609261
0.310865
-0.0416098
0.108133
0.522316
0.546148
0.143314
-0.0496446
0.269132
0.594247
0.414227
0.0170569
0.0256308
0.421019
0.580606
0.257777
-0.0419058
0.142193
0.520061
0.503983
0.127517
-0.0237374
0.268898
0.524223
0.361353
0.0999174
0.155538
0.372121
0.387535
0.285376
0.292212
0.296074
0.195262
0.20589
0.41241
0.474448
0.219235
0.0347382
0.248989
0.548939
0.458015
0.115463
0.0668488
0.395257
0.571772
0.30477
0.0367851
0.22873
0.583415
0.514228
0.126745
0.0425509
0.329834
0.478189
0.393734
0.388349
0.412544
0.280392
0.206116
0.37344
0.469452
0.264562
0.141375
0.367739
0.500994
0.244318
0.0828612
0.358016
0.548243
0.234252
-0.0477528
0.208295
0.51276
0.341712
0.127397
0.340704
0.530363
0.234337
-0.0532096
0.193275
0.512168
0.358372
0.138343
0.336475
0.520794
0.235127
-0.0321802
0.219744
0.517168
0.343552
0.128755
0.337771
0.519261
0.230603
-0.0319328
0.218679
0.515867
0.361157
0.155178
0.331163
0.499855
0.27894
0.0394586
0.149484
0.379404
0.458649
-0.236701
-0.208188
0.0862859
0.448909
0.349659
-0.179221
-0.369862
0.101489
0.506045
0.18955
-0.354509
-0.258453
0.328798
0.474655
-0.053905
-0.420068
-0.0440601
0.479149
0.321592
-0.267446
-0.356081
0.195494
0.514194
0.0957158
-0.397415
-0.185807
0.393982
0.423538
-0.142632
-0.40742
0.0455732
0.49577
0.230651
-0.326189
-0.294971
0.26875
0.471247
-0.00235357
-0.400969
-0.105431
0.407852
0.332353
-0.193867
-0.336856
0.10122
0.402458
0.119314
-0.238803
-0.125307
0.196607
0.224432
0.0549339
0.0111794
0.0112309
-0.0648247
-0.00778074
0.231736
0.250337
-0.0907227
-0.278993
0.0407968
0.408455
0.228026
-0.24962
-0.28243
0.202267
0.461292
0.0960676
-0.287496
-0.0423765
0.431622
0.321572
-0.206242
-0.276135
0.206571
0.531149
0.490675
0.428566
0.309105
-0.0417902
-0.261201
0.0140816
0.431606
0.521473
0.479714
0.570973
0.444677
-0.0807822
-0.378364
-0.00231762
0.502612
0.552265
0.452745
0.574835
0.509568
-0.0292044
-0.389585
-0.0274977
0.516678
0.587175
0.469469
0.579639
0.529984
-0.00228311
-0.383515
-0.0376866
0.512032
0.594416
0.483311
0.588975
0.523651
-0.0166809
-0.386441
-0.0287461
0.517408
0.594762
0.485266
0.585808
0.516602
-0.0057449
-0.364852
-0.0397248
0.488688
0.622661
0.524444
0.486795
0.407428
0.259571
0.159137
0.10212
0.24011
0.496935
0.484563
0.158639
0.0267837
0.339563
0.613568
0.39231
0.0132284
0.0798839
0.489028
0.591283
0.223777
-0.0317474
0.228813
0.592798
0.483812
0.0737493
0.0112923
0.395206
0.617651
0.326003
-0.0181156
0.129999
0.535287
0.555231
0.158507
-0.025077
0.294958
0.609811
0.419791
0.0285034
0.0568062
0.456761
0.593359
0.254333
-0.0175216
0.204602
0.560802
0.485592
0.112247
0.0438604
0.376492
0.565389
0.323353
0.0715628
0.19375
0.440368
0.431687
0.281557
0.258371
0.283237
0.239594
0.27295
0.425
0.414972
0.178513
0.0826775
0.321741
0.535689
0.352956
0.0147314
0.0341295
0.408994
0.587327
0.285886
-0.0424655
0.118298
0.478514
0.399572
0.0350171
0.0515949
0.397772
0.485065
0.348316
0.398892
0.441169
0.13826
-0.122394
0.115415
0.47575
0.437415
0.284233
0.423726
0.487197
0.120288
-0.162289
0.119828
0.505704
0.464531
0.328307
0.485757
0.521597
0.0940518
-0.220356
0.0896307
0.518276
0.482211
0.325094
0.478196
0.530372
0.107004
-0.221927
0.0819374
0.516186
0.478789
0.315955
0.46938
0.524207
0.106021
-0.212219
0.0950348
0.517859
0.472994
0.316884
0.471253
0.517068
0.103615
-0.206489
0.0791807
0.485724
0.483448
0.348107
0.410317
0.456176
0.360441
0.501778
0.542911
0.468429
0.424153
0.486459
0.551938
0.545885
0.515807
0.511506
0.52186
0.526476
0.522419
0.514576
0.512721
0.521067
0.527974
0.522075
0.512445
0.514679
0.525221
0.527452
0.518424
0.51279
0.518938
0.526962
0.524881
0.516801
0.515094
0.521734
0.527095
0.524025
0.517519
0.516632
0.523633
0.529113
0.524036
0.514687
0.51632
0.53106
0.537802
0.523048
0.50436
0.514656
0.547167
0.551132
0.51011
0.485744
0.534057
0.580135
0.530507
0.4574
0.506645
0.609343
0.569552
0.444239
0.46353
0.605712
0.612071
0.482457
0.454093
0.561656
0.606448
0.513829
0.438601
0.489764
0.585894
0.58361
0.445608
0.326131
0.416013
0.584276
0.553589
0.455061
0.546134
0.562856
0.198139
-0.110731
0.141065
0.552331
0.544513
0.387214
0.503129
0.534874
0.107593
-0.242076
0.051769
0.523895
0.54596
0.404149
0.518481
0.520605
0.0800351
-0.242433
0.067376
0.515653
0.510416
0.370928
0.508896
0.524093
0.0731834
-0.261796
0.0530002
0.514837
0.512501
0.367681
0.507566
0.526474
0.0686447
-0.272714
0.0475275
0.516482
0.517195
0.376323
0.514251
0.519912
0.0566387
-0.270334
0.0592569
0.516131
0.50915
0.37541
0.505225
0.495481
0.0613182
-0.217889
0.0878431
0.494052
0.537276
0.276376
0.575321
0.369412
-0.00238047
0.0659805
0.468963
0.572819
0.213304
-0.0543028
0.187409
0.568557
0.493978
0.0742469
-0.0329793
0.344435
0.61231
0.346013
-0.0334128
0.0756678
0.50107
0.569333
0.173111
-0.0593625
0.239898
0.596738
0.446591
0.0283543
0.00448687
0.411867
0.6051
0.279209
-0.0488375
0.139292
0.544845
0.526119
0.113581
-0.0410231
0.304282
0.6026
0.384012
-0.00359277
0.0486208
0.453324
0.570552
0.218316
-0.0500653
0.179973
0.545927
0.476485
0.0843473
-0.0244905
0.305326
0.543182
0.3325
0.0446364
0.127465
0.400886
0.427262
0.257981
0.209156
0.283484
0.312323
0.325505
0.401806
0.411041
0.27737
0.182399
0.25073
0.382848
0.474062
0.457566
0.351694
0.378963
0.576704
0.517238
0.0175257
-0.309742
0.027008
0.517696
0.548697
0.418328
0.544663
0.540445
0.0544808
-0.318462
-0.000238741
0.508957
0.555919
0.430805
0.549381
0.51987
0.017305
-0.346688
-0.0152759
0.505381
0.570353
0.45582
0.566968
0.522131
0.00893454
-0.354966
-0.015956
0.509975
0.572597
0.454321
0.568108
0.526939
0.0120249
-0.351778
-0.00892219
0.513812
0.568592
0.450712
0.567332
0.520011
0.00307514
-0.346124
0.00584879
0.514243
0.558311
0.453212
0.574049
0.506562
-0.0080512
-0.308375
0.0743905
0.518198
0.399377
-0.00702201
0.445006
0.212943
-0.282261
-0.212749
0.314746
0.45507
-0.0342909
-0.40456
-0.0721082
0.458356
0.358332
-0.224041
-0.375817
0.146034
0.518666
0.150165
-0.377769
-0.228474
0.361936
0.457641
-0.0933306
-0.418005
-0.00207239
0.495283
0.285865
-0.298458
-0.33193
0.237985
0.507926
0.0503295
-0.409654
-0.144455
0.424637
0.396236
-0.18355
-0.396597
0.0916838
0.505409
0.189807
-0.351872
-0.262623
0.311152
0.458135
-0.0506359
-0.407759
-0.0566327
0.440138
0.301697
-0.238109
-0.327589
0.150511
0.423563
0.0864692
-0.283205
-0.12071
0.260185
0.274825
0.00997916
-0.0855437
0.0334566
0.139323
0.188389
0.221854
0.136539
-0.0384875
-0.0496391
0.16252
0.382427
0.438896
0.26157
-0.0390683
-0.0829141
0.248506
0.476271
0.286371
0.120004
0.339072
0.479228
0.151046
-0.115666
0.170716
0.523169
0.401639
0.201056
0.380101
0.503234
0.153436
-0.130335
0.159572
0.519358
0.396648
0.192762
0.374235
0.515199
0.188307
-0.0969636
0.170058
0.515503
0.394876
0.197185
0.381521
0.521511
0.190565
-0.0986938
0.168486
0.516785
0.398849
0.205019
0.390369
0.521373
0.180205
-0.106353
0.168744
0.515841
0.396009
0.210311
0.398511
0.516436
0.17035
-0.0991125
0.183242
0.506986
0.365392
0.194986
0.427424
0.561283
0.123759
0.209612
0.532855
0.342672
0.00403735
0.0991424
0.48891
0.577931
0.233031
-0.0197127
0.21044
0.574886
0.508384
0.10934
0.00295795
0.36112
0.619404
0.365709
-0.000872849
0.100763
0.510049
0.577391
0.194604
-0.0322893
0.256407
0.60317
0.457636
0.0495733
0.0255816
0.423818
0.612991
0.292839
-0.0294978
0.156318
0.555367
0.535392
0.128827
-0.0191999
0.325214
0.61498
0.390488
0.0100264
0.0780098
0.484665
0.584292
0.223025
-0.0207966
0.235916
0.579448
0.466995
0.0924333
0.0587204
0.40716
0.573238
0.309668
0.0662908
0.215989
0.486187
0.46781
0.262175
0.201678
0.304157
0.398207
0.42572
0.387192
0.260115
0.173676
0.273545
0.432553
0.489213
0.459684
0.272796
-0.0907241
-0.236818
0.105126
0.51721
0.564416
0.503055
0.611396
0.503828
-0.049459
-0.399001
-0.0282378
0.520349
0.605373
0.50576
0.609307
0.52226
-0.039608
-0.411581
-0.0400292
0.523909
0.615402
0.511727
0.611317
0.528458
-0.0307035
-0.415591
-0.0572467
0.513497
0.618832
0.51726
0.612412
0.528853
-0.0294475
-0.415962
-0.0592608
0.511505
0.61731
0.517179
0.613145
0.526529
-0.0335838
-0.414828
-0.0536728
0.513406
0.616078
0.51883
0.61371
0.521565
-0.0335691
-0.404078
-0.0484837
0.503948
0.600338
0.490476
0.586613
0.580107
0.156181
0.531512
0.562911
0.458966
0.417482
0.499849
0.544684
0.513161
0.501691
0.526206
0.527761
0.505941
0.506218
0.527241
0.532405
0.517108
0.508575
0.518365
0.529223
0.525194
0.514046
0.512988
0.522593
0.527547
0.520834
0.513652
0.516815
0.524643
0.525092
0.518223
0.514964
0.519872
0.52528
0.523266
0.517287
0.516314
0.521689
0.525843
0.523099
0.517807
0.517465
0.523413
0.527388
0.522547
0.515089
0.518052
0.531356
0.534465
0.517951
0.504219
0.521462
0.549982
0.541167
0.50028
0.495021
0.548633
0.571699
0.514294
0.473645
0.53701
0.5973
0.539513
0.477571
0.531835
0.582247
0.514353
0.489649
0.565941
0.513353
0.345848
0.342328
0.411336
0.276472
0.154441
0.338349
0.511901
0.3381
0.173515
0.370615
0.519788
0.245241
0.0162491
0.266198
0.521622
0.314532
0.0941183
0.317858
0.527465
0.26937
0.0242077
0.265854
0.522909
0.315218
0.0926404
0.315685
0.524472
0.259626
0.0023573
0.244129
0.519678
0.324974
0.0958523
0.30998
0.521285
0.262216
0.00526624
0.24509
0.519425
0.322224
0.0904582
0.305191
0.520096
0.266178
0.013233
0.251142
0.520094
0.32174
0.0896048
0.29897
0.515742
0.276939
0.0250047
0.241204
0.519047
0.369423
0.118679
0.225524
0.458513
0.441987
0.326043
0.197885
0.246125
0.462995
0.468547
0.136948
-0.0254575
0.291894
0.598551
0.383601
-0.0193194
0.0391282
0.469326
0.586608
0.206696
-0.0655103
0.201217
0.58391
0.477704
0.0524011
-0.0178741
0.378047
0.613233
0.315933
-0.0420437
0.106554
0.526139
0.55233
0.144409
-0.0511659
0.274941
0.606233
0.418787
0.0101229
0.0269583
0.441838
0.59774
0.248388
-0.0525753
0.170652
0.563865
0.503996
0.085626
-0.0304299
0.337313
0.606242
0.351144
-0.0249929
0.0685203
0.480634
0.557708
0.176312
-0.0639833
0.213037
0.567316
0.433866
0.0264906
-0.00721881
0.37647
0.551598
0.261953
0.0128138
0.180878
0.444875
0.45349
0.380379
0.345276
0.160494
-0.0368035
0.122387
0.468323
0.563936
0.515649
0.579439
0.466832
-0.0286639
-0.34636
-0.00872719
0.502058
0.585231
0.496223
0.60056
0.518869
-0.0258564
-0.392329
-0.0346395
0.514634
0.60149
0.50064
0.602118
0.518818
-0.031166
-0.398919
-0.0376928
0.514923
0.600989
0.495691
0.598904
0.526013
-0.0209819
-0.399043
-0.0447568
0.512758
0.604265
0.497766
0.59949
0.528312
-0.018795
-0.400207
-0.0475004
0.512402
0.607137
0.50061
0.599191
0.528334
-0.0140066
-0.399151
-0.0595021
0.50355
0.61972
0.508241
0.574915
0.535135
0.0964027
-0.296943
-0.156716
0.292482
0.582809
-0.148306
-0.151211
0.0866543
0.422031
0.359549
-0.150669
-0.373563
0.0780484
0.503441
0.206396
-0.348763
-0.271215
0.318956
0.481708
-0.0418456
-0.42015
-0.0533638
0.476986
0.330769
-0.260231
-0.359746
0.189915
0.517906
0.104346
-0.395654
-0.189853
0.395673
0.433176
-0.136778
-0.411351
0.0440114
0.507787
0.245587
-0.327077
-0.303525
0.27845
0.496951
0.00585833
-0.417065
-0.10258
0.450609
0.366214
-0.221352
-0.381745
0.136443
0.510407
0.148755
-0.372977
-0.229662
0.347662
0.441773
-0.0948471
-0.409828
-0.00756043
0.467501
0.25962
-0.288406
-0.298589
0.226266
0.431063
0.0248891
-0.28908
-0.0364891
0.331692
0.337564
0.185289
0.108507
-0.00373458
-0.0506715
0.188344
0.444868
0.379201
0.275238
0.4388
0.482816
0.0945746
-0.19521
0.0974211
0.500211
0.452952
0.291666
0.446227
0.516534
0.127133
-0.177694
0.115097
0.511527
0.442635
0.273977
0.440635
0.518504
0.126782
-0.178879
0.116429
0.516343
0.451304
0.282858
0.446671
0.523289
0.128702
-0.183057
0.111211
0.516683
0.453645
0.280734
0.44281
0.524421
0.134297
-0.178549
0.112666
0.516498
0.451644
0.27524
0.435903
0.52424
0.143926
-0.173158
0.102001
0.508655
0.466204
0.280694
0.399547
0.513075
0.246181
-0.0603252
0.0191963
0.309253
0.464269
-0.170153
0.0274611
0.301489
0.553577
0.513633
0.159185
-0.00454272
0.307884
0.611009
0.408338
0.020413
0.0716488
0.480845
0.594517
0.231911
-0.0309945
0.222215
0.589688
0.488612
0.0781455
0.00800499
0.389518
0.618118
0.330511
-0.0186005
0.123929
0.532524
0.559415
0.161272
-0.0314332
0.286512
0.611297
0.428125
0.0268034
0.0428288
0.450877
0.604788
0.260537
-0.0367514
0.183698
0.572618
0.514344
0.102679
-0.00888485
0.355524
0.617647
0.363741
3.86701e-05
0.104236
0.509864
0.574204
0.199339
-0.0145755
0.271835
0.599689
0.447617
0.071256
0.0809133
0.447028
0.568578
0.281032
0.0952474
0.285009
0.485435
0.420098
0.317977
0.332411
0.332516
0.37257
0.520054
0.441282
-0.0101524
-0.263557
0.0917607
0.535029
0.519585
0.380378
0.515535
0.522933
0.0606098
-0.285647
0.0312896
0.513502
0.536536
0.402908
0.530307
0.521916
0.0422881
-0.302385
0.0299957
0.518642
0.538746
0.404471
0.532406
0.523357
0.0449554
-0.2996
0.0291781
0.515635
0.536028
0.401388
0.530705
0.525587
0.0472959
-0.302437
0.0238539
0.514405
0.539221
0.404404
0.531866
0.526116
0.0465337
-0.306573
0.0177999
0.512956
0.545446
0.408652
0.525753
0.524955
0.0664124
-0.293285
-0.0126404
0.477231
0.576139
0.452138
0.458244
0.456745
0.29036
0.262009
0.435762
0.442787
0.41618
0.484065
0.541476
0.523043
0.500593
0.510618
0.524096
0.526529
0.523033
0.515689
0.512047
0.519953
0.528467
0.523066
0.512351
0.514131
0.525016
0.527085
0.517921
0.512928
0.51935
0.526154
0.523023
0.515725
0.515574
0.522116
0.525072
0.520318
0.515587
0.518042
0.523528
0.523489
0.51834
0.516354
0.52041
0.524249
0.522112
0.517201
0.516881
0.522243
0.525838
0.521711
0.515815
0.517992
0.526414
0.527666
0.518734
0.513646
0.521896
0.533216
0.530433
0.514717
0.50563
0.522254
0.547294
0.533301
0.481431
0.479373
0.559595
0.576234
0.43684
0.337875
0.46766
0.610122
0.533963
0.470467
0.581412
0.477248
-0.0221926
-0.30606
0.062778
0.541695
0.557183
0.433498
0.55974
0.5317
0.0296615
-0.331025
0.00246914
0.513534
0.557596
0.429787
0.549722
0.525692
0.0297005
-0.323298
0.0141196
0.517884
0.55347
0.42651
0.549381
0.523668
0.0256235
-0.328321
0.00833142
0.514901
0.555248
0.428852
0.550012
0.525333
0.0283815
-0.327852
0.00665178
0.51397
0.554532
0.42611
0.547024
0.525906
0.0326122
-0.323695
0.00736398
0.511698
0.552333
0.423366
0.541201
0.525055
0.0483743
-0.304317
0.000389671
0.480625
0.530462
0.401776
0.485063
0.524996
0.275862
0.50482
0.545394
0.201846
-0.13548
0.027606
0.474343
0.58155
0.223512
-0.0526436
0.174055
0.55984
0.504294
0.0878395
-0.0343476
0.335704
0.612984
0.355313
-0.0285035
0.0726102
0.498588
0.573132
0.178906
-0.0576827
0.238416
0.597574
0.451348
0.0322961
0.00422442
0.411281
0.609127
0.285083
-0.0474692
0.137911
0.547679
0.533293
0.117789
-0.041153
0.307702
0.612215
0.390638
-0.00650876
0.0486104
0.468221
0.587707
0.217192
-0.0572034
0.198504
0.578305
0.478544
0.0560681
-0.0209404
0.366927
0.603036
0.31346
-0.0450189
0.0862458
0.494919
0.540383
0.15114
-0.0787558
0.194611
0.542786
0.416686
0.00442045
-0.041002
0.360904
0.54894
0.219711
-0.0421576
0.207348
0.503896
0.38042
0.22121
0.41233
0.513328
0.152922
-0.129897
0.155465
0.518938
0.41596
0.229851
0.408031
0.521302
0.159142
-0.142051
0.140062
0.517982
0.427616
0.24591
0.41959
0.520406
0.150105
-0.147212
0.140799
0.518206
0.425363
0.242889
0.417274
0.521878
0.155567
-0.143566
0.139899
0.517206
0.427089
0.245014
0.418389
0.522659
0.15475
-0.14741
0.13571
0.516838
0.431361
0.25121
0.422028
0.520625
0.149557
-0.151039
0.132601
0.512555
0.432339
0.261045
0.429411
0.514165
0.136503
-0.158764
0.127192
0.509455
0.422115
0.305239
0.448872
0.0628954
-0.380429
-0.217569
0.333572
0.467702
-0.0174265
-0.397425
-0.087748
0.445313
0.369433
-0.208099
-0.379074
0.133113
0.517677
0.159812
-0.374097
-0.234539
0.357488
0.461272
-0.0880989
-0.418739
-0.00643097
0.495001
0.291195
-0.294706
-0.334833
0.234205
0.511508
0.0580796
-0.408388
-0.149584
0.424843
0.405745
-0.176622
-0.400705
0.0877639
0.515635
0.205958
-0.351093
-0.274164
0.314668
0.483061
-0.0358025
-0.420211
-0.0616012
0.471234
0.333678
-0.255162
-0.361902
0.179702
0.50985
0.109267
-0.384682
-0.196758
0.371261
0.432771
-0.0968906
-0.39407
-0.0145781
0.443467
0.287546
-0.189786
-0.189998
0.294117
0.443371
-0.0392281
-0.400353
-0.0522856
0.499653
0.602156
0.50206
0.589298
0.502021
-0.0405178
-0.406727
-0.0485334
0.510504
0.609616
0.509821
0.608454
0.526694
-0.0291112
-0.410349
-0.051165
0.513675
0.610816
0.508297
0.607145
0.523444
-0.0330185
-0.409248
-0.046389
0.516276
0.611151
0.508996
0.608256
0.525349
-0.0305495
-0.409484
-0.049773
0.514127
0.611711
0.509267
0.607674
0.526217
-0.0284981
-0.408408
-0.0498605
0.513538
0.61073
0.50865
0.607311
0.524594
-0.0292143
-0.403817
-0.0441316
0.510622
0.600771
0.503181
0.609648
0.529147
-0.0190073
-0.373398
0.000365024
0.515093
0.481622
0.0621984
0.451168
0.333634
0.0603153
0.153844
0.490354
0.555299
0.233791
-0.00580539
0.207387
0.564647
0.511448
0.116159
-0.00265634
0.35045
0.617851
0.369591
-0.00317452
0.0930051
0.506019
0.578763
0.19482
-0.0367565
0.251058
0.601662
0.459342
0.0493734
0.0207523
0.418727
0.613258
0.296086
-0.0311294
0.149481
0.552166
0.539568
0.131531
-0.0262202
0.315834
0.616407
0.400086
0.00947445
0.0628711
0.475905
0.595226
0.23252
-0.0370845
0.213694
0.587624
0.493592
0.0839799
0.00998541
0.386979
0.617735
0.34407
0.00678253
0.136427
0.524795
0.571176
0.219105
0.020824
0.2761
0.59268
0.49905
0.166309
0.130211
0.429584
0.530717
0.205293
-0.0381369
0.206076
0.490859
0.320682
0.0915133
0.287891
0.507025
0.282982
0.0471206
0.271993
0.515957
0.298819
0.0623121
0.285195
0.520043
0.289174
0.0485118
0.278698
0.519816
0.289223
0.0479895
0.278867
0.520787
0.292445
0.054058
0.283686
0.52041
0.287785
0.0480925
0.279386
0.520346
0.291368
0.0517392
0.280981
0.520078
0.288831
0.0467511
0.276446
0.520059
0.294524
0.0558575
0.283952
0.519878
0.284619
0.0414601
0.27341
0.519438
0.297359
0.0643118
0.292938
0.520162
0.277191
0.0341352
0.266658
0.512599
0.29998
0.0846986
0.321957
0.546338
0.308748
0.134668
0.455111
0.509872
0.511344
0.555121
0.529354
0.466009
0.481671
0.537572
0.536958
0.503401
0.503685
0.526743
0.530112
0.516553
0.512354
0.520612
0.526227
0.522507
0.516359
0.516214
0.521745
0.52481
0.520684
0.51555
0.517493
0.523462
0.523858
0.518161
0.515642
0.520099
0.524221
0.521714
0.516787
0.516988
0.521789
0.523812
0.519968
0.51624
0.518581
0.523494
0.523128
0.51784
0.51603
0.520862
0.525227
0.522028
0.515197
0.515193
0.524063
0.528961
0.51883
0.506973
0.516309
0.537181
0.531657
0.501508
0.498539
0.534025
0.548111
0.519047
0.507873
0.525088
0.501106
0.447665
0.459916
0.508951
0.482291
0.470492
0.574772
0.480813
-0.020361
-0.364107
-0.0305371
0.506092
0.607755
0.512497
0.605335
0.521748
-0.026241
-0.403612
-0.0494667
0.511633
0.61055
0.509868
0.60891
0.525953
-0.0308606
-0.409586
-0.0478037
0.516139
0.612161
0.510566
0.609332
0.523927
-0.033549
-0.410311
-0.0479816
0.515347
0.611675
0.510113
0.608958
0.52522
-0.031618
-0.410711
-0.0499313
0.514847
0.612559
0.510869
0.609488
0.524963
-0.0332932
-0.411882
-0.0490838
0.51588
0.612971
0.512324
0.610859
0.525214
-0.0293433
-0.405817
-0.0550965
0.498696
0.60785
0.518013
0.597558
0.532577
0.135305
0.38035
0.283966
0.224368
0.415635
0.478544
0.158988
-0.0395643
0.269949
0.599215
0.393604
-0.0165687
0.0373755
0.469091
0.589403
0.212904
-0.0584146
0.20455
0.584267
0.480962
0.0593792
-0.01313
0.378309
0.614305
0.321147
-0.0370896
0.107142
0.525675
0.555722
0.149814
-0.049206
0.273579
0.607159
0.423982
0.014177
0.0258128
0.44023
0.60209
0.255411
-0.0517739
0.166271
0.564714
0.512995
0.0922931
-0.0324941
0.335596
0.6141
0.361833
-0.0239131
0.0649698
0.487505
0.575011
0.185442
-0.069642
0.21232
0.58527
0.453558
0.0192841
-0.0323222
0.37576
0.591416
0.283923
-0.0469387
0.0863152
0.416819
0.45974
0.271964
0.18546
0.244331
0.359758
0.507198
0.469143
0.105123
-0.132847
0.149161
0.501289
0.417695
0.252151
0.42347
0.519242
0.151652
-0.146822
0.136442
0.51529
0.426791
0.244799
0.418033
0.522358
0.156117
-0.141353
0.143809
0.517769
0.421905
0.23948
0.416216
0.521558
0.155549
-0.140694
0.144516
0.518051
0.422921
0.240561
0.416395
0.522108
0.156944
-0.139779
0.144907
0.518189
0.421353
0.237229
0.414006
0.522212
0.15915
-0.135513
0.149587
0.51926
0.417853
0.232106
0.408953
0.520877
0.169521
-0.119601
0.147744
0.505491
0.435568
0.273104
0.391732
0.458655
0.243112
0.47818
0.163878
-0.0156979
0.232237
0.338435
-0.0750741
-0.338743
0.0684137
0.497338
0.209057
-0.350068
-0.274117
0.319376
0.482907
-0.0421157
-0.421034
-0.0543231
0.47658
0.332035
-0.258639
-0.360654
0.187532
0.518222
0.107555
-0.394503
-0.192796
0.393474
0.435939
-0.132693
-0.412213
0.0396513
0.507632
0.251439
-0.323407
-0.307735
0.27353
0.501261
0.0153519
-0.416002
-0.110756
0.448552
0.377576
-0.211472
-0.387319
0.127706
0.519365
0.169074
-0.369387
-0.245948
0.343912
0.469054
-0.0677671
-0.419054
-0.0307313
0.482445
0.309054
-0.272384
-0.338109
0.209461
0.498656
0.0907067
-0.351956
-0.164387
0.332321
0.471768
0.221711
-0.0391924
-0.152128
-0.0900881
0.193475
0.478124
0.487987
0.434653
0.56137
0.503213
0.00977036
-0.321203
0.018373
0.514854
0.550888
0.425876
0.548814
0.525124
0.028133
-0.327811
0.00784802
0.514987
0.555231
0.429531
0.551516
0.523506
0.0224676
-0.330925
0.0094391
0.517017
0.555965
0.430438
0.552284
0.523597
0.022849
-0.3305
0.00896519
0.516441
0.556122
0.430924
0.552894
0.523799
0.0214672
-0.332597
0.00854521
0.517647
0.55762
0.433154
0.554956
0.522462
0.0176631
-0.334367
0.00796851
0.516279
0.562141
0.442512
0.549027
0.508538
0.050012
-0.258906
0.012778
0.411917
0.509331
0.355455
0.339884
0.250509
0.416844
0.514831
0.227937
0.0208229
0.299665
0.608933
0.408178
0.0114192
0.0638958
0.480805
0.593597
0.224038
-0.0406854
0.217098
0.588525
0.486606
0.0727681
0.00143081
0.385584
0.617386
0.329531
-0.0226108
0.11863
0.529818
0.559853
0.161073
-0.0352772
0.281476
0.610004
0.430643
0.0272602
0.0378106
0.445537
0.605878
0.265546
-0.0372079
0.176341
0.568694
0.520042
0.108145
-0.0153281
0.344631
0.619511
0.376796
0.001883
0.0872429
0.497957
0.587655
0.218593
-0.0236726
0.243529
0.597715
0.4833
0.0920366
0.0502443
0.416606
0.605404
0.33969
0.0649686
0.192679
0.49668
0.578449
0.419864
0.18267
-0.0410185
-0.0804714
0.189974
0.492684
0.502937
0.438684
0.561113
0.510034
0.0274633
-0.298316
0.0354612
0.516493
0.536304
0.404441
0.533647
0.525614
0.0452717
-0.302593
0.0267617
0.515635
0.535961
0.40094
0.530746
0.523803
0.0444542
-0.299899
0.0314683
0.517322
0.534462
0.399903
0.530699
0.52328
0.0437701
-0.300182
0.0311772
0.516948
0.53405
0.399312
0.530274
0.523164
0.0439336
-0.298592
0.0342309
0.517924
0.53107
0.396118
0.529028
0.520992
0.0422579
-0.293928
0.0408955
0.515667
0.524823
0.397245
0.524924
0.503844
0.0511142
-0.246976
0.0426316
0.440655
0.515641
0.192572
0.56711
0.550937
0.491428
0.554728
0.567245
0.505581
0.491917
0.526795
0.536545
0.521158
0.516399
0.519729
0.518154
0.518201
0.522558
0.521981
0.516649
0.516612
0.522117
0.523593
0.518977
0.516317
0.519713
0.523421
0.521728
0.517536
0.517341
0.52134
0.523308
0.520147
0.516768
0.518561
0.522807
0.522708
0.51822
0.51642
0.520365
0.524027
0.521447
0.516255
0.516633
0.522608
0.524955
0.519038
0.51356
0.51818
0.526848
0.525097
0.513975
0.511181
0.52301
0.53192
0.522524
0.50697
0.509153
0.529813
0.5382
0.509471
0.475074
0.498862
0.564025
0.548334
0.420529
0.360027
0.469704
0.539662
0.419734
0.349136
0.488894
0.492641
0.123984
-0.137099
0.140786
0.509095
0.443496
0.284914
0.448303
0.52236
0.130685
-0.178143
0.114693
0.516482
0.451515
0.280579
0.444789
0.523385
0.128835
-0.182289
0.113714
0.517886
0.453161
0.283549
0.447514
0.522105
0.125039
-0.183928
0.114451
0.518179
0.452628
0.283421
0.447799
0.52209
0.124515
-0.184455
0.114474
0.518408
0.453035
0.285407
0.4505
0.520829
0.118856
-0.18733
0.11704
0.519578
0.451679
0.289559
0.456615
0.513993
0.105484
-0.182297
0.133449
0.514413
0.432585
0.282639
0.436865
0.483234
0.173036
0.229443
0.571586
0.367124
0.032842
0.119381
0.477326
0.556154
0.226191
-0.0243525
0.196138
0.563185
0.502014
0.0934085
-0.022938
0.343329
0.614603
0.35758
-0.0217539
0.0793445
0.501078
0.574541
0.183571
-0.0519247
0.240959
0.598244
0.454471
0.0373695
0.00691269
0.41117
0.610582
0.289666
-0.0441282
0.137027
0.546661
0.536954
0.122972
-0.0411097
0.303979
0.61274
0.39679
-0.00331911
0.0441756
0.46419
0.59274
0.225386
-0.058993
0.188356
0.576633
0.491353
0.0648791
-0.0316045
0.352711
0.610597
0.334456
-0.0435394
0.0658117
0.48586
0.555292
0.160276
-0.0910048
0.188438
0.561819
0.430862
-0.0379431
-0.145829
0.272167
0.621769
0.543628
0.427783
0.557067
0.501149
-0.0147979
-0.379889
-0.0441113
0.504738
0.607277
0.50529
0.599448
0.523404
-0.0205468
-0.397581
-0.0444488
0.512607
0.604686
0.49941
0.600735
0.526003
-0.022558
-0.39868
-0.0409015
0.515323
0.603486
0.498073
0.600427
0.523929
-0.0253331
-0.398415
-0.0383926
0.516491
0.603033
0.497969
0.600828
0.523708
-0.025999
-0.398095
-0.0369308
0.517091
0.602017
0.497638
0.601408
0.521347
-0.0302939
-0.396143
-0.0285053
0.520121
0.597058
0.497021
0.605013
0.512328
-0.0466579
-0.388812
0.000320829
0.526782
0.573767
0.480081
0.598057
0.500654
-0.0424834
0.46418
0.529842
0.0950348
-0.363578
-0.212593
0.329309
0.467582
-0.0107352
-0.391024
-0.0839652
0.445648
0.364929
-0.212623
-0.37737
0.137996
0.51826
0.156349
-0.375669
-0.232957
0.358713
0.460974
-0.0883089
-0.418795
-0.0071889
0.494719
0.292627
-0.293458
-0.336197
0.23193
0.512256
0.0614939
-0.407492
-0.153204
0.422253
0.409216
-0.171611
-0.402196
0.0817782
0.515435
0.213581
-0.3468
-0.280378
0.3079
0.488848
-0.0232206
-0.419562
-0.0745011
0.46699
0.350571
-0.239114
-0.371799
0.160282
0.518736
0.142801
-0.373802
-0.224024
0.352127
0.458595
-0.0581476
-0.390651
-0.0362928
0.439975
0.304644
-0.202233
-0.254894
0.250144
0.538125
0.231742
-0.0418345
0.218718
0.517206
0.333234
0.090934
0.29084
0.515791
0.276045
0.0150827
0.241685
0.514906
0.323974
0.0943802
0.307352
0.52017
0.263301
0.00798962
0.247542
0.519093
0.321175
0.0937848
0.31121
0.520428
0.258338
0.00488854
0.248508
0.519798
0.320781
0.0951494
0.313538
0.520583
0.25688
0.00457414
0.249344
0.519867
0.32012
0.0956187
0.315012
0.520282
0.254328
0.00349727
0.25089
0.519786
0.318355
0.0989801
0.322079
0.518795
0.244566
0.00214532
0.258998
0.517039
0.304079
0.0996678
0.338373
0.517855
0.229173
0.0119908
0.287483
0.509134
0.207785
0.534608
0.579069
0.248735
-0.0674998
0.0787555
0.486361
0.58146
0.23857
-0.0286022
0.188784
0.562975
0.508949
0.10385
-0.0128863
0.349271
0.617219
0.362519
-0.0121268
0.0885299
0.505127
0.576767
0.189867
-0.0425874
0.247318
0.600524
0.458252
0.045928
0.0159338
0.415598
0.612857
0.296106
-0.0334757
0.145194
0.549574
0.540733
0.133199
-0.0286139
0.310989
0.615529
0.404516
0.0122024
0.0587055
0.470471
0.5977
0.241201
-0.034421
0.206091
0.5827
0.502998
0.0968069
0.00675758
0.373289
0.619834
0.365538
0.0163096
0.117386
0.507389
0.588339
0.25178
0.021306
0.237643
0.559071
0.508371
0.207317
0.177884
0.480957
0.525889
0.0294991
-0.354172
-0.0351979
0.511116
0.61637
0.509249
0.598844
0.530001
-0.0147798
-0.410795
-0.0666303
0.507231
0.619897
0.518443
0.611434
0.526848
-0.0317564
-0.416284
-0.0568509
0.513372
0.617044
0.517131
0.613727
0.525135
-0.0371188
-0.417243
-0.0526531
0.516147
0.616647
0.517107
0.614353
0.52387
-0.0393512
-0.417386
-0.050974
0.516903
0.616026
0.517071
0.614932
0.52254
-0.0422448
-0.417259
-0.0469186
0.519211
0.614736
0.517805
0.617005
0.516834
-0.0523308
-0.415148
-0.0335721
0.523749
0.609021
0.519924
0.622101
0.505237
-0.0611225
-0.391718
-0.00981689
0.505606
0.545813
0.245249
0.484633
0.504473
0.474724
0.505359
0.51872
0.496224
0.498494
0.520845
0.523274
0.514212
0.516509
0.523113
0.521998
0.518439
0.519161
0.521422
0.521674
0.520444
0.519233
0.519207
0.520653
0.521599
0.520211
0.518343
0.519073
0.521498
0.521743
0.51915
0.517712
0.519968
0.522628
0.521314
0.517732
0.51758
0.52148
0.523331
0.519784
0.51617
0.518593
0.523841
0.523422
0.516963
0.514292
0.520828
0.527355
0.52231
0.511363
0.512218
0.526511
0.531893
0.515405
0.500734
0.515505
0.539904
0.530485
0.498547
0.502479
0.540779
0.540731
0.498471
0.504355
0.557953
0.542449
0.482558
0.521093
0.516408
0.234746
-0.00963788
0.194831
0.489661
0.382378
0.201835
0.381433
0.521337
0.195201
-0.100514
0.16001
0.513722
0.401297
0.203521
0.385315
0.521758
0.18667
-0.102441
0.168496
0.517896
0.397732
0.202477
0.388524
0.521839
0.183659
-0.101783
0.172499
0.518838
0.395104
0.201147
0.389193
0.521335
0.182084
-0.101644
0.1741
0.51916
0.393989
0.2011
0.390406
0.520957
0.180068
-0.101149
0.177565
0.519975
0.390947
0.200637
0.393095
0.518902
0.175081
-0.0975439
0.186518
0.521315
0.392104
0.214246
0.401022
0.505031
0.170523
-0.081288
0.163891
0.47533
0.460376
-0.0165415
0.179172
0.368242
0.559704
0.480818
0.110428
-0.0349082
0.301683
0.605714
0.389751
-0.00211813
0.0583813
0.476078
0.587675
0.217228
-0.0477634