# vtk DataFile Version 3.0
PFC-RG simulation results
ASCII
DATASET STRUCTURED_POINTS
DIMENSIONS 128 128 1
ORIGIN 0 0 0
SPACING 1 1 1
POINT_DATA 16384
SCALARS psi double
lOOKUP_TABLE default
0.484309
0.531048
0.483446
0.45904
0.499365
0.516059
0.499485
0.509035
0.533696
0.526483
0.502201
0.505692
0.531716
0.53786
0.515343
0.500577
0.516542
0.538366
0.532192
0.507677
0.502784
0.525124
0.540618
0.525614
0.503621
0.508452
0.533842
0.541658
0.519537
0.500296
0.513433
0.542872
0.54649
0.517142
0.492857
0.513578
0.558405
0.55823
0.500255
0.47081
0.536735
0.594382
0.528019
0.438163
0.500015
0.619348
0.571051
0.436914
0.466169
0.611169
0.602606
0.469719
0.460768
0.572775
0.599125
0.509651
0.466298
0.523197
0.573734
0.546012
0.489267
0.481728
0.527965
0.562536
0.54221
0.503606
0.495374
0.511644
0.519834
0.504975
0.48087
0.471174
0.497609
0.544899
0.492085
0.296628
0.221757
0.421985
0.585832
0.50935
0.47502
0.607119
0.502394
0.0174322
-0.236844
0.131899
0.576959
0.571798
0.45399
0.594931
0.566675
0.0252703
-0.382387
-0.0404133
0.532129
0.631339
0.510354
0.598918
0.537343
-0.00188595
-0.405267
-0.07479
0.499559
0.622656
0.521116
0.610319
0.536046
-0.0136947
-0.412491
-0.0713792
0.502925
0.619348
0.518326
0.611339
0.533297
-0.0195595
-0.411047
-0.0653596
0.503563
0.622082
0.527665
0.603332
0.513835
0.0186468
-0.321387
-0.0594283
0.408689
0.585564
0.0239312
0.0828837
0.300873
0.558117
0.481741
0.0895617
-0.0500758
0.303531
0.603683
0.367321
-0.0328608
0.0424709
0.474653
0.575673
0.183851
-0.0801453
0.201583
0.582658
0.459475
0.0268584
-0.0310202
0.376643
0.604538
0.29256
-0.0655506
0.0950554
0.519546
0.537765
0.122884
-0.0704529
0.259411
0.59075
0.40447
-0.00149331
0.00772668
0.41247
0.578802
0.25225
-0.0573112
0.123736
0.511503
0.5068
0.127807
-0.0368105
0.251471
0.520025
0.371916
0.107391
0.145318
0.353853
0.384867
0.302185
0.305299
0.288317
0.18079
0.207209
0.426074
0.484166
0.2251
0.0461072
0.263519
0.558041
0.464733
0.130279
0.0895335
0.412772
0.580824
0.321805
0.0709613
0.26136
0.591618
0.50399
0.122122
0.0503591
0.336242
0.479852
0.401887
0.398804
0.40877
0.263146
0.192745
0.37217
0.472351
0.266572
0.146973
0.375706
0.503496
0.239859
0.0766552
0.354186
0.549514
0.244943
-0.0284829
0.224071
0.513452
0.328936
0.110449
0.328086
0.529717
0.247649
-0.0360614
0.202181
0.511667
0.349687
0.118216
0.314487
0.520848
0.260696
-0.00761961
0.226933
0.515932
0.333648
0.0979737
0.303167
0.520383
0.271782
0.012245
0.239892
0.514699
0.335747
0.105327
0.285232
0.495465
0.319998
0.0925564
0.177245
0.379816
0.463744
-0.166807
-0.194555
0.0722753
0.445587
0.354894
-0.177403
-0.365526
0.111785
0.51083
0.184243
-0.358111
-0.25222
0.336384
0.473269
-0.0596741
-0.418606
-0.0355019
0.48297
0.316123
-0.271924
-0.350775
0.203746
0.513783
0.0888679
-0.398705
-0.179134
0.398601
0.420611
-0.146385
-0.405851
0.0488892
0.495984
0.229841
-0.325617
-0.296098
0.26532
0.471559
0.00303974
-0.40036
-0.11499
0.399992
0.337833
-0.185284
-0.344224
0.08183
0.396155
0.13448
-0.227082
-0.142683
0.163724
0.215997
0.0793117
0.0272486
-0.0147742
-0.107924
-0.0197102
0.250933
0.259594
-0.107483
-0.295954
0.0454693
0.4223
0.228985
-0.259014
-0.281075
0.218931
0.476815
0.103362
-0.27437
-0.0161413
0.450114
0.315755
-0.22016
-0.278499
0.209748
0.530345
0.491419
0.43023
0.299948
-0.0596809
-0.270272
0.0195226
0.438478
0.522589
0.482075
0.575466
0.443719
-0.0863581
-0.380838
-0.00022408
0.505787
0.557346
0.461639
0.582205
0.509102
-0.035493
-0.396567
-0.03297
0.515557
0.592582
0.476854
0.58405
0.533993
0.000848384
-0.390807
-0.0543268
0.504426
0.602822
0.492641
0.593072
0.5338
-0.00544303
-0.396128
-0.0548957
0.506291
0.607391
0.500299
0.594012
0.526386
-0.000295356
-0.37852
-0.0639356
0.478891
0.63507
0.541614
0.488949
0.406971
0.294712
0.214557
0.116487
0.23213
0.497912
0.493643
0.166359
0.0361544
0.349899
0.616851
0.392329
0.0225896
0.0970989
0.49967
0.592571
0.229683
-0.0139878
0.246516
0.598815
0.486163
0.0873381
0.0334509
0.409639
0.620811
0.332994
0.00173778
0.150761
0.543687
0.558558
0.172315
-0.00317437
0.308854
0.613318
0.42802
0.047624
0.0731494
0.460853
0.59649
0.268586
-0.000858372
0.209208
0.558685
0.492609
0.126875
0.0487419
0.367887
0.561162
0.334647
0.0830401
0.18399
0.415901
0.423021
0.297674
0.266688
0.255368
0.198016
0.260646
0.438925
0.413063
0.145573
0.0491242
0.315624
0.544899
0.345854
-0.0161614
0.00612513
0.40442
0.587533
0.259257
-0.0858358
0.100005
0.488783
0.405973
0.0301079
0.0490952
0.391585
0.462427
0.320518
0.382846
0.434739
0.136811
-0.11371
0.129889
0.478635
0.425625
0.273852
0.421357
0.485199
0.119042
-0.155493
0.130204
0.506565
0.453144
0.31424
0.476921
0.520597
0.102481
-0.205866
0.100223
0.518261
0.472699
0.309975
0.465271
0.531996
0.124979
-0.203787
0.0871907
0.51247
0.468996
0.295097
0.448235
0.528209
0.135897
-0.185894
0.101092
0.511675
0.455843
0.283454
0.440801
0.520902
0.1412
-0.16633
0.0981336
0.481226
0.464074
0.323784
0.387689
0.449875
0.395077
0.5135
0.548751
0.4698
0.430972
0.494362
0.555424
0.547216
0.514515
0.506419
0.520112
0.533043
0.527973
0.509108
0.503562
0.522381
0.537318
0.523371
0.501929
0.507796
0.532231
0.536402
0.513775
0.500526
0.517546
0.538004
0.530132
0.506963
0.504647
0.526277
0.538673
0.523663
0.505194
0.511174
0.532808
0.537668
0.51851
0.504084
0.516623
0.540346
0.541121
0.516094
0.497989
0.517408
0.553858
0.551828
0.503835
0.480955
0.536748
0.584623
0.527965
0.450527
0.504757
0.611098
0.566798
0.439584
0.464573
0.607761
0.607518
0.475115
0.449282
0.558245
0.606964
0.51939
0.435507
0.473799
0.579686
0.592683
0.430149
0.270322
0.371222
0.583711
0.568042
0.460633
0.549323
0.559724
0.176403
-0.138222
0.129744
0.554904
0.550088
0.396759
0.512543
0.529852
0.090209
-0.251621
0.0555258
0.527887
0.547017
0.410178
0.526333
0.51805
0.0663368
-0.255635
0.0619394
0.517398
0.518881
0.383835
0.518426
0.524441
0.0651111
-0.275654
0.0391088
0.512011
0.524583
0.383263
0.516515
0.53078
0.0666623
-0.290042
0.022605
0.509285
0.534342
0.397361
0.526153
0.526269
0.0519661
-0.295924
0.0283244
0.509405
0.531428
0.405745
0.523833
0.495139
0.0483269
-0.228555
0.0839491
0.491207
0.540957
0.275023
0.581603
0.374738
0.0039456
0.0719295
0.470646
0.56876
0.204776
-0.0615271
0.186854
0.569286
0.485095
0.0571858
-0.0445415
0.343373
0.609715
0.331362
-0.0526547
0.0659074
0.499793
0.562004
0.154095
-0.0782855
0.232108
0.593937
0.435403
0.00807334
-0.0127476
0.4048
0.600784
0.266728
-0.0688168
0.122967
0.538491
0.522567
0.102169
-0.0598226
0.289291
0.598444
0.383784
-0.0125199
0.0298665
0.439439
0.572918
0.225924
-0.058008
0.158126
0.535955
0.489611
0.0978576
-0.0342282
0.283258
0.538764
0.354642
0.0698979
0.125188
0.374013
0.419787
0.294863
0.245574
0.266244
0.275185
0.340168
0.452959
0.432756
0.28184
0.225292
0.306564
0.392483
0.458677
0.459506
0.356752
0.36945
0.569632
0.522131
0.0233419
-0.303322
0.0390707
0.523254
0.539419
0.407522
0.540669
0.534553
0.0473659
-0.312849
0.0153169
0.515248
0.549378
0.424508
0.54765
0.517497
0.0166524
-0.339009
-0.00415028
0.508359
0.563532
0.446472
0.560554
0.521943
0.0164666
-0.345241
-0.0120112
0.507578
0.566246
0.443161
0.557837
0.53114
0.0305372
-0.337878
-0.00975711
0.507352
0.560618
0.435167
0.552943
0.526714
0.02851
-0.325324
0.0106928
0.508074
0.544088
0.434271
0.560487
0.504867
0.00355631
-0.282687
0.101163
0.523003
0.380756
0.0129114
0.459329
0.214937
-0.281686
-0.207115
0.320327
0.454193
-0.0385249
-0.402512
-0.0627945
0.462848
0.35126
-0.231204
-0.37064
0.156622
0.519326
0.141589
-0.380694
-0.220561
0.36894
0.45442
-0.0996789
-0.416566
0.00475661
0.497348
0.282104
-0.300259
-0.329211
0.240251
0.507733
0.0507459
-0.408648
-0.145953
0.422695
0.399077
-0.178474
-0.398162
0.0838313
0.503776
0.19941
-0.345461
-0.272632
0.297422
0.463093
-0.0328765
-0.406966
-0.078774
0.42693
0.317765
-0.218469
-0.338085
0.120091
0.414273
0.112698
-0.257153
-0.140898
0.204899
0.258207
0.0659374
-0.0387934
-0.0174738
0.0502527
0.18848
0.293731
0.161705
-0.0580724
-0.0133881
0.253895
0.447002
0.467129
0.283441
-0.0366111
-0.109353
0.225601
0.480297
0.306118
0.142664
0.357276
0.478176
0.129568
-0.134444
0.16797
0.525846
0.404505
0.212061
0.393797
0.502336
0.13898
-0.14128
0.157851
0.521159
0.402971
0.207317
0.388175
0.514886
0.173974
-0.113859
0.159363
0.515544
0.407157
0.214973
0.393527
0.522776
0.181111
-0.11831
0.148325
0.514212
0.417782
0.227868
0.402793
0.52421
0.17161
-0.131835
0.140601
0.51219
0.421048
0.242211
0.418559
0.517811
0.151272
-0.12862
0.163207
0.506048
0.380415
0.220885
0.451412
0.565675
0.110727
0.238437
0.545577
0.340978
0.00316483
0.104845
0.494881
0.57897
0.234121
-0.0110003
0.223093
0.580327
0.50697
0.114694
0.0195443
0.375382
0.621771
0.366771
0.0120953
0.119626
0.519797
0.578814
0.202672
-0.0134506
0.27246
0.607974
0.462127
0.0654186
0.0450399
0.433064
0.616153
0.304727
-0.0094378
0.169511
0.558468
0.542582
0.146876
-0.00311653
0.328872
0.616756
0.404378
0.0284618
0.0832
0.479654
0.589738
0.241756
-0.0107843
0.227016
0.57198
0.478448
0.1081
0.0550776
0.388496
0.565547
0.324042
0.0809322
0.197777
0.439951
0.450268
0.303355
0.232459
0.247061
0.308142
0.41904
0.441099
0.257257
0.116761
0.258187
0.462583
0.506037
0.473815
0.30969
-0.0654745
-0.247718
0.0876207
0.516114
0.56789
0.502719
0.610552
0.497923
-0.0597818
-0.398433
-0.0147791
0.528476
0.602012
0.503336
0.609901
0.515853
-0.0490922
-0.410407
-0.030463
0.528104
0.612459
0.509991
0.611406
0.525516
-0.0339724
-0.413864
-0.0533527
0.514341
0.617072
0.514766
0.610384
0.531034
-0.0227684
-0.412871
-0.0639096
0.50644
0.615926
0.513721
0.608939
0.532499
-0.0197643
-0.410008
-0.0615264
0.505879
0.613299
0.514565
0.609991
0.524851
-0.026087
-0.396976
-0.0417769
0.50661
0.595507
0.484466
0.584979
0.580126
0.16064
0.537286
0.562756
0.460783
0.423833
0.503529
0.542438
0.51017
0.503338
0.53078
0.528362
0.500472
0.502266
0.5316
0.538849
0.514538
0.499509
0.516392
0.537228
0.52983
0.506731
0.504018
0.52531
0.537112
0.521296
0.503016
0.510835
0.532253
0.533675
0.513205
0.503322
0.519325
0.535933
0.52752
0.508045
0.5078
0.526417
0.535367
0.522226
0.508195
0.513887
0.530462
0.533435
0.518767
0.508158
0.518177
0.537113
0.537194
0.514893
0.500039
0.521332
0.554413
0.544592
0.496805
0.489411
0.551804
0.578518
0.509023
0.464656
0.546535
0.609385
0.521621
0.452364
0.546623
0.611927
0.507771
0.46973
0.563247
0.485458
0.272271
0.296006
0.436707
0.318619
0.167174
0.338911
0.513465
0.326732
0.151807
0.357753
0.519151
0.252182
0.0332248
0.284884
0.522368
0.297773
0.0809243
0.315774
0.526962
0.270746
0.0357217
0.280054
0.523193
0.301302
0.0784435
0.308659
0.524112
0.267909
0.0188678
0.258155
0.520208
0.312219
0.0773671
0.295337
0.520902
0.278336
0.0256826
0.256382
0.519261
0.311186
0.0680638
0.283315
0.519576
0.289268
0.0392215
0.264309
0.5199
0.307306
0.0617724
0.274572
0.514368
0.298315
0.0539878
0.26254
0.521716
0.353619
0.0992689
0.216049
0.4598
0.451902
0.309793
0.191891
0.25754
0.477194
0.467066
0.125395
-0.0292148
0.297431
0.598831
0.371794
-0.0323869
0.0365191
0.472142
0.580452
0.189787
-0.0791257
0.199448
0.583992
0.466618
0.0337377
-0.0301051
0.375638
0.609461
0.302058
-0.060411
0.0948418
0.522329
0.546668
0.129747
-0.0696907
0.262993
0.602283
0.413088
-0.0048593
0.008133
0.430647
0.595836
0.244498
-0.0675618
0.151348
0.555051
0.50727
0.084993
-0.0463629
0.317978
0.603562
0.36275
-0.023541
0.0490788
0.463102
0.566665
0.197683
-0.0659765
0.186922
0.557915
0.459961
0.0528619
-0.014758
0.352307
0.547176
0.288094
0.0550252
0.207664
0.43456
0.452583
0.458581
0.458836
0.185857
-0.114288
0.0580588
0.478879
0.592514
0.518631
0.578783
0.47385
-0.0307264
-0.355196
-0.00801459
0.509118
0.589416
0.501582
0.604952
0.509766
-0.0428351
-0.395973
-0.0235522
0.522456
0.601859
0.503808
0.606534
0.51404
-0.0418307
-0.403001
-0.0342093
0.51824
0.603388
0.500483
0.603125
0.52539
-0.0250065
-0.404261
-0.0503489
0.510723
0.60846
0.503431
0.602744
0.532284
-0.0152497
-0.405558
-0.060217
0.506475
0.612472
0.50701
0.602729
0.534213
-0.00966283
-0.405441
-0.0711955
0.499595
0.624892
0.514957
0.578471
0.534487
0.0944134
-0.294351
-0.14956
0.298094
0.58396
-0.151942
-0.14483
0.105046
0.435042
0.352958
-0.162036
-0.368567
0.0930892
0.506623
0.195489
-0.354175
-0.261368
0.329252
0.47716
-0.0528541
-0.419453
-0.0418871
0.481727
0.323056
-0.26659
-0.354701
0.19794
0.517553
0.0987748
-0.396572
-0.18571
0.398054
0.432316
-0.137019
-0.410702
0.0431049
0.50741
0.249102
-0.323738
-0.306893
0.272485
0.499359
0.0155402
-0.415126
-0.113595
0.443261
0.376389
-0.207727
-0.387573
0.117774
0.5087
0.169358
-0.362029
-0.248608
0.326199
0.45271
-0.0668132
-0.410623
-0.0410628
0.449904
0.284053
-0.2609
-0.314451
0.181018
0.411923
0.0612981
-0.232065
-0.0367519
0.251381
0.287727
0.287161
0.29878
0.10603
-0.0574604
0.168001
0.462139
0.386449
0.25166
0.422634
0.490023
0.107555
-0.181364
0.113678
0.50429
0.438891
0.277499
0.441552
0.511546
0.123413
-0.166315
0.134466
0.515811
0.430177
0.263144
0.437444
0.516075
0.127712
-0.167479
0.130481
0.518256
0.440177
0.269152
0.437745
0.522676
0.138595
-0.167698
0.12131
0.516118
0.443581
0.26406
0.428333
0.525709
0.152418
-0.159636
0.120102
0.514141
0.440862
0.254808
0.417586
0.526168
0.164913
-0.151778
0.112358
0.507967
0.454474
0.261071
0.383617
0.51145
0.260168
-0.0388782
0.0348669
0.313895
0.463844
-0.144682
0.0488364
0.317088
0.557786
0.506619
0.156495
0.00794533
0.323621
0.61411
0.403855
0.0253194
0.0875352
0.4919
0.593455
0.231861
-0.018202
0.238821
0.595457
0.487643
0.0859317
0.0253844
0.401899
0.620401
0.335129
-0.00340968
0.139855
0.538672
0.562836
0.174002
-0.0137204
0.296027
0.613989
0.437768
0.0451053
0.0557292
0.452974
0.60951
0.277275
-0.0198504
0.186941
0.570804
0.525265
0.12249
-0.00116124
0.348455
0.618015
0.381897
0.015032
0.0973852
0.497296
0.581863
0.219329
-0.0130052
0.251175
0.58709
0.458971
0.0830589
0.0660806
0.413395
0.549336
0.298471
0.127698
0.2656
0.381799
0.320999
0.343287
0.452118
0.416555
0.385622
0.526836
0.465416
-0.00655043
-0.284858
0.0808799
0.542145
0.529052
0.391023
0.525397
0.515639
0.0380825
-0.296629
0.0397943
0.521939
0.538695
0.41107
0.539956
0.515151
0.0239285
-0.310506
0.0351147
0.523483
0.541617
0.412591
0.540714
0.520764
0.0334704
-0.309658
0.0245353
0.516278
0.543242
0.412459
0.538546
0.527025
0.0425189
-0.314217
0.0100259
0.510814
0.549383
0.417216
0.539307
0.530423
0.0454216
-0.319952
-0.00038184
0.507769
0.556129
0.422246
0.534339
0.528316
0.06201
-0.305159
-0.0226093
0.477157
0.583955
0.459532
0.459418
0.459479
0.308857
0.285562
0.45236
0.448825
0.414174
0.482453
0.546553
0.529991
0.500232
0.504614
0.522516
0.531845
0.5265
0.511181
0.505848
0.521419
0.535178
0.52379
0.504712
0.509236
0.530246
0.533769
0.514537
0.503658
0.518101
0.534599
0.527331
0.508129
0.507134
0.525621
0.534503
0.520078
0.505363
0.513374
0.531073
0.530667
0.513508
0.506879
0.52054
0.532881
0.525234
0.510089
0.510753
0.525972
0.532626
0.521024
0.509729
0.516202
0.530689
0.531006
0.517347
0.510872
0.521317
0.534953
0.533248
0.515941
0.501833
0.516758
0.548931
0.53937
0.476407
0.465507
0.560815
0.589588
0.42702
0.306133
0.457682
0.621385
0.524036
0.441266
0.572927
0.492625
-0.00998078
-0.298259
0.0761403
0.547
0.545962
0.423302
0.557697
0.523116
0.0178782
-0.322906
0.0264864
0.52327
0.54752
0.421682
0.548434
0.518148
0.020914
-0.31637
0.0308179
0.523283
0.545412
0.418806
0.546087
0.520729
0.0263677
-0.319793
0.0176226
0.515907
0.548307
0.419066
0.542476
0.526341
0.0390262
-0.316958
0.00948935
0.510889
0.548111
0.41443
0.536405
0.529742
0.0496108
-0.310665
0.00832676
0.507133
0.54504
0.411181
0.531107
0.527129
0.0600081
-0.292805
0.00740997
0.481063
0.521725
0.3869
0.473662
0.530143
0.306085
0.494491
0.544012
0.201293
-0.136326
0.0334306
0.482847
0.577997
0.207283
-0.0629725
0.178772
0.564276
0.493312
0.0702174
-0.0406477
0.340062
0.611097
0.340373
-0.0440631
0.0683522
0.499918
0.566539
0.162918
-0.0717611
0.23347
0.595722
0.442816
0.0167021
-0.00979493
0.404828
0.606049
0.276563
-0.0633402
0.122723
0.541011
0.531703
0.110088
-0.0583563
0.291817
0.608286
0.392614
-0.014183
0.0294835
0.454205
0.589846
0.223144
-0.0661289
0.178367
0.569485
0.489009
0.0653786
-0.0324228
0.346795
0.602738
0.334914
-0.0334942
0.0677503
0.473501
0.555819
0.190776
-0.0734547
0.150375
0.516283
0.470109
0.11199
0.0483407
0.393355
0.530992
0.179052
-0.0708108
0.208
0.517837
0.393329
0.241065
0.432707
0.507441
0.124441
-0.144802
0.163388
0.525145
0.416026
0.242589
0.42598
0.516169
0.135051
-0.153832
0.146218
0.522517
0.428609
0.256354
0.432683
0.517627
0.134311
-0.158208
0.139172
0.519942
0.431415
0.255381
0.428
0.521672
0.145386
-0.157651
0.128363
0.516134
0.438843
0.260318
0.42741
0.52469
0.149449
-0.163237
0.117366
0.513654
0.446294
0.268342
0.430825
0.523439
0.145358
-0.166164
0.115591
0.508872
0.443068
0.275274
0.438923
0.515019
0.128158
-0.168499
0.125207
0.513968
0.426446
0.283961
0.444657
0.0638115
-0.377759
-0.20799
0.343023
0.462341
-0.0320797
-0.398443
-0.0715975
0.454525
0.35828
-0.220613
-0.372727
0.147873
0.518269
0.147492
-0.378628
-0.224874
0.365683
0.456928
-0.0957877
-0.417562
0.000353496
0.496991
0.287811
-0.296398
-0.333183
0.235264
0.511725
0.0600152
-0.407135
-0.152784
0.42174
0.410072
-0.169421
-0.402692
0.0779686
0.514129
0.217708
-0.343562
-0.284253
0.301663
0.489032
-0.0181015
-0.418758
-0.0805729
0.46116
0.350078
-0.236646
-0.37138
0.155069
0.508846
0.136258
-0.370546
-0.221124
0.342286
0.447538
-0.0528518
-0.387955
-0.0665991
0.403826
0.330834
-0.0839726
-0.0999881
0.320787
0.426653
-0.0471399
-0.370878
-0.00627268
0.519789
0.59494
0.50154
0.597061
0.489389
-0.0649919
-0.403713
-0.0196784
0.525302
0.602268
0.506714
0.611074
0.513631
-0.0491048
-0.407668
-0.0296585
0.524288
0.605823
0.505613
0.607988
0.516374
-0.0422903
-0.406672
-0.0360978
0.520361
0.60802
0.506007
0.606788
0.524342
-0.0290269
-0.406222
-0.0489274
0.512532
0.609725
0.505559
0.604042
0.530085
-0.0180804
-0.403942
-0.0556752
0.507503
0.608932
0.504542
0.602642
0.530139
-0.0161277
-0.398562
-0.0499711
0.504621
0.599031
0.500904
0.60659
0.529934
-0.0124338
-0.360766
0.0143618
0.514657
0.454145
0.0724059
0.460365
0.337508
0.0636633
0.161095
0.496623
0.553774
0.230485
0.00214001
0.224011
0.57243
0.506129
0.115128
0.0113614
0.365861
0.619636
0.365941
0.00445521
0.109494
0.515279
0.578252
0.198458
-0.0227608
0.264343
0.605618
0.462075
0.0608359
0.0353626
0.425646
0.615882
0.305996
-0.0152983
0.158736
0.553666
0.546437
0.148054
-0.0132958
0.316904
0.617667
0.413995
0.0266745
0.0667419
0.471097
0.601279
0.25102
-0.0267652
0.206764
0.582256
0.50629
0.100899
0.00835416
0.372453
0.616809
0.362054
0.0174691
0.121621
0.505144
0.577788
0.244055
0.0248257
0.249312
0.572232
0.508261
0.180702
0.121162
0.401268
0.511557
0.222693
0.0183171
0.262146
0.494872
0.283403
0.0718658
0.298158
0.510189
0.276235
0.0622647
0.300505
0.516146
0.272059
0.048573
0.291303
0.520182
0.284317
0.0608339
0.299206
0.519544
0.270552
0.0367428
0.279667
0.520849
0.293518
0.0652606
0.296872
0.520501
0.275761
0.0353594
0.271964
0.52031
0.300514
0.0656611
0.290386
0.520515
0.280788
0.0315066
0.261713
0.519417
0.3098
0.0720399
0.290361
0.520103
0.279592
0.0257372
0.255083
0.517939
0.314077
0.0798385
0.297156
0.520316
0.275634
0.0242189
0.252145
0.508287
0.311391
0.102844
0.335477
0.548579
0.298787
0.16247
0.459692
0.507846
0.513962
0.556911
0.526775
0.464977
0.486139
0.543199
0.537202
0.498301
0.500455
0.530232
0.535086
0.514775
0.505746
0.519141
0.532121
0.526032
0.511103
0.509723
0.523871
0.531926
0.521057
0.50783
0.513222
0.529113
0.530269
0.514612
0.507007
0.519539
0.53228
0.5252
0.50972
0.510134
0.525435
0.531568
0.51929
0.50822
0.515544
0.529352
0.528042
0.514338
0.509969
0.521159
0.530397
0.523905
0.511624
0.511941
0.525483
0.532407
0.519481
0.504759
0.515378
0.539428
0.534267
0.502401
0.498831
0.533719
0.548054
0.527448
0.525
0.522406
0.458907
0.403506
0.459666
0.538844
0.506267
0.490387
0.59131
0.46365
-0.0611233
-0.371657
0.00207692
0.527757
0.6039
0.515219
0.614282
0.505294
-0.0573747
-0.406371
-0.0245015
0.525981
0.607535
0.512324
0.61435
0.514189
-0.0506817
-0.411523
-0.0342027
0.523855
0.611467
0.51261
0.612388
0.519791
-0.0409992
-0.412847
-0.0466331
0.516538
0.613322
0.51251
0.6106
0.527319
-0.0292088
-0.41344
-0.0582881
0.510182
0.615529
0.513656
0.609924
0.531274
-0.0235071
-0.413796
-0.0631779
0.507709
0.616686
0.514987
0.609582
0.532114
-0.0162891
-0.405373
-0.0696908
0.489154
0.612002
0.52101
0.593118
0.541428
0.174311
0.376336
0.260001
0.215291
0.422766
0.477053
0.147205
-0.0414675
0.279779
0.600581
0.378836
-0.0300939
0.0394485
0.476076
0.583154
0.195781
-0.0682969
0.207667
0.586231
0.470241
0.0435696
-0.0203359
0.379331
0.611592
0.309265
-0.0508512
0.0998413
0.523622
0.551344
0.139021
-0.0627277
0.264272
0.604033
0.420843
0.00385547
0.0105238
0.430163
0.601238
0.254297
-0.0633157
0.149361
0.556875
0.516655
0.0927072
-0.0460676
0.318701
0.611653
0.371382
-0.0233796
0.0486165
0.473578
0.581431
0.199848
-0.0720233
0.194642
0.578392
0.468516
0.0362566
-0.0352842
0.357803
0.584995
0.307793
-0.0118656
0.0847066
0.377882
0.464845
0.367185
0.28873
0.266162
0.333772
0.498927
0.467968
0.0963767
-0.11758
0.187321
0.512545
0.394292
0.237858
0.427856
0.51217
0.137462
-0.134775
0.165758
0.521252
0.408294
0.234304
0.419951
0.517284
0.148987
-0.13127
0.162446
0.520945
0.409955
0.229854
0.413118
0.519832
0.158168
-0.130425
0.154522
0.518805
0.414914
0.228855
0.407012
0.522793
0.168866
-0.127296
0.149039
0.516612
0.416077
0.224316
0.400059
0.524335
0.177358
-0.12218
0.148761
0.516179
0.416184
0.221105
0.393774
0.523202
0.188919
-0.109305
0.141035
0.502901
0.442823
0.265955
0.366546
0.457058
0.292342
0.440498
0.128101
-0.0167839
0.248323
0.336894
-0.0891067
-0.337496
0.0835289
0.499944
0.194184
-0.357687
-0.261308
0.332757
0.476437
-0.0570907
-0.420717
-0.0401214
0.482296
0.322095
-0.267082
-0.35508
0.197005
0.517648
0.100439
-0.396192
-0.188195
0.396187
0.434614
-0.133508
-0.41178
0.0385762
0.50708
0.255043
-0.319983
-0.311422
0.267214
0.503704
0.0250704
-0.414145
-0.121343
0.441784
0.387167
-0.19896
-0.392293
0.111566
0.517955
0.186587
-0.35999
-0.260832
0.327435
0.477867
-0.0466591
-0.419159
-0.052698
0.471943
0.325257
-0.253845
-0.343378
0.187633
0.489395
0.110129
-0.324316
-0.168684
0.305456
0.502703
0.340659
0.0662281
-0.148269
-0.127512
0.200931
0.50896
0.499379
0.444096
0.575621
0.489351
-0.0262843
-0.33022
0.04208
0.529694
0.548467
0.433435
0.561217
0.512336
-8.3927e-05
-0.334003
0.0242822
0.524839
0.55474
0.435679
0.559651
0.516516
0.0066314
-0.33668
0.0140025
0.52076
0.558667
0.436557
0.55766
0.523
0.0179055
-0.337445
0.00171424
0.514538
0.562259
0.438228
0.556546
0.52811
0.0252082
-0.339931
-0.00761027
0.511077
0.565727
0.440526
0.556388
0.529802
0.0281919
-0.340253
-0.0123958
0.507686
0.571216
0.44728
0.545491
0.519477
0.0741463
-0.258216
-0.0193497
0.389968
0.524076
0.325465
0.323136
0.261944
0.432159
0.511689
0.218964
0.0262891
0.313165
0.61131
0.400537
0.0125969
0.0788265
0.492239
0.590307
0.21894
-0.0319496
0.232858
0.594112
0.482522
0.0750607
0.014784
0.396905
0.618638
0.330191
-0.013004
0.130912
0.53489
0.561575
0.169189
-0.0230452
0.287979
0.611728
0.437886
0.0406061
0.0461297
0.445784
0.609602
0.27912
-0.0248584
0.176958
0.566387
0.529279
0.124131
-0.0102
0.33786
0.619602
0.391475
0.013599
0.081495
0.488287
0.593933
0.233581
-0.0226626
0.230013
0.591373
0.49225
0.100271
0.0448993
0.404227
0.600044
0.348664
0.0796272
0.187878
0.468354
0.574176
0.467869
0.224437
-0.0561561
-0.10178
0.214031
0.519832
0.492144
0.42136
0.558573
0.496441
0.00568041
-0.289118
0.0706774
0.530354
0.521729
0.396139
0.535819
0.513642
0.0275946
-0.294999
0.0523265
0.524746
0.525559
0.394263
0.530593
0.517304
0.0374035
-0.293327
0.0447942
0.520818
0.527859
0.392963
0.526639
0.52253
0.0486642
-0.292721
0.0343716
0.515351
0.529929
0.391165
0.522108
0.526785
0.0588166
-0.289926
0.0294867
0.512179
0.529147
0.387954
0.51854
0.527477
0.0627723
-0.286402
0.0294667
0.507802
0.52667
0.390711
0.512747
0.513434
0.08061
-0.23612
0.0222357
0.42076
0.512181
0.183812
0.566236
0.557344
0.490602
0.547191
0.565154
0.509817
0.49327
0.523448
0.53534
0.524673
0.518918
0.517
0.514395
0.519575
0.527275
0.522619
0.511784
0.513564
0.52569
0.528124
0.516891
0.510307
0.518962
0.529114
0.524727
0.512632
0.511825
0.52373
0.529682
0.520128
0.510031
0.515445
0.527898
0.527641
0.51506
0.510052
0.520452
0.529869
0.523583
0.511486
0.512486
0.525043
0.52947
0.5186
0.509518
0.516942
0.529444
0.526984
0.513232
0.510014
0.522492
0.531782
0.524096
0.509636
0.508055
0.524953
0.537704
0.514346
0.475081
0.493815
0.56601
0.549176
0.396904
0.325126
0.456799
0.539695
0.410535
0.349629
0.507446
0.487774
0.0849764
-0.158823
0.155944
0.521346
0.4404
0.295912
0.468225
0.513192
0.0987812
-0.188541
0.130177
0.524295
0.448118
0.289535
0.459555
0.516791
0.106943
-0.190446
0.1213
0.52227
0.453684
0.29145
0.456913
0.519733
0.114102
-0.192198
0.111089
0.518587
0.458638
0.292361
0.453329
0.523499
0.122421
-0.194006
0.100848
0.515201
0.463848
0.295523
0.452915
0.525086
0.12407
-0.196547
0.097127
0.513933
0.464485
0.298077
0.454824
0.519712
0.117154
-0.188495
0.111616
0.507496
0.445761
0.289447
0.431512
0.486565
0.185663
0.22239
0.567985
0.359346
0.0182915
0.112784
0.482227
0.555428
0.213835
-0.031315
0.203426
0.568649
0.491677
0.0787859
-0.0239018
0.35177
0.613699
0.343579
-0.0331944
0.0805207
0.505224
0.568643
0.170263
-0.0604374
0.240658
0.59792
0.447402
0.0264184
-0.0012166
0.407949
0.608602
0.284126
-0.0541793
0.12694
0.541989
0.536673
0.119263
-0.0524428
0.292119
0.6099
0.400065
-0.00673968
0.0305668
0.453188
0.594879
0.231918
-0.063833
0.173774
0.569922
0.499631
0.0733332
-0.0380743
0.338909
0.609669
0.349328
-0.0337659
0.0553979
0.471293
0.561982
0.18066
-0.0895623
0.167087
0.550511
0.439965
-0.0372451
-0.162268
0.26256
0.62597
0.551173
0.44108
0.56852
0.483904
-0.0483349
-0.378001
-0.00482055
0.527009
0.597601
0.499756
0.602664
0.505911
-0.0483992
-0.394287
-0.0138871
0.527967
0.597349
0.496209
0.60294
0.513719
-0.0403727
-0.395761
-0.0222151
0.523855
0.598906
0.495311
0.600462
0.519302
-0.0298936
-0.395569
-0.0330608
0.517431
0.600863
0.494909
0.598026
0.526118
-0.0179041
-0.394612
-0.0428938
0.511522
0.601756
0.494314
0.596276
0.529113
-0.0126542
-0.392284
-0.042813
0.509962
0.598592
0.494402
0.599054
0.523372
-0.0237328
-0.384499
-0.0177356
0.513494
0.573002
0.475828
0.593663
0.513518
-0.0208349
0.454544
0.525823
0.0872243
-0.374228
-0.210578
0.340048
0.464242
-0.0279527
-0.395485
-0.0684572
0.455102
0.352386
-0.226817
-0.370679
0.15413
0.518384
0.141688
-0.381335
-0.221921
0.368132
0.455369
-0.0980711
-0.417695
0.00101172
0.496953
0.287759
-0.296335
-0.334148
0.233841
0.51216
0.062153
-0.406851
-0.155715
0.419735
0.412684
-0.165713
-0.404002
0.0732726
0.513945
0.223529
-0.340305
-0.288877
0.296813
0.493567
-0.00877525
-0.418233
-0.0894016
0.459044
0.362868
-0.225203
-0.37841
0.1427
0.51779
0.16127
-0.364239
-0.240057
0.333954
0.468106
-0.0342471
-0.392458
-0.0670048
0.420808
0.317294
-0.18028
-0.241424
0.25938
0.542794
0.231692
-0.0318231
0.237245
0.51906
0.324109
0.106713
0.322731
0.514886
0.243621
0.0012569
0.254467
0.517537
0.314709
0.104731
0.330394
0.518622
0.239933
-0.00126408
0.256106
0.520564
0.316214
0.102269
0.326472
0.519526
0.243905
-0.0032549
0.249232
0.520302
0.322873
0.103499
0.321437
0.520553
0.250676
-0.00437155
0.240822
0.519383
0.330078
0.105417
0.317255
0.520999
0.254684
-0.00640323
0.234781
0.518321
0.333851
0.108992
0.319268
0.519865
0.250784
-0.00577478
0.240293
0.515193
0.321092
0.108094
0.332569
0.518849
0.237136
0.00661217
0.273017
0.506895
0.213822
0.533015
0.582561
0.252433
-0.0664756
0.0849797
0.49518
0.578754
0.226743
-0.0298037
0.201918
0.570508
0.500861
0.0966958
-0.0041713
0.362837
0.617879
0.354708
-0.0104728
0.101472
0.51362
0.57411
0.187939
-0.0343652
0.258026
0.60357
0.457641
0.0510479
0.0251066
0.42058
0.614208
0.301306
-0.0246034
0.15007
0.550014
0.54524
0.143581
-0.0219171
0.309564
0.615789
0.414352
0.0228704
0.0584576
0.465028
0.601858
0.253849
-0.0296227
0.198335
0.577881
0.511694
0.106858
0.00261016
0.361461
0.619107
0.376883
0.020203
0.104222
0.494595
0.594732
0.265606
0.0157198
0.213883
0.545135
0.515862
0.222504
0.190019
0.48494
0.510896
0.00336695
-0.356886
-0.00877155
0.529152
0.613856
0.513501
0.607138
0.508673
-0.0522198
-0.412719
-0.033349
0.526803
0.615027
0.519252
0.61732
0.510702
-0.0590116
-0.417241
-0.0336948
0.526413
0.614007
0.517852
0.617281
0.516009
-0.0516219
-0.418062
-0.0427965
0.521167
0.61593
0.517876
0.615553
0.522901
-0.0399398
-0.418174
-0.0548096
0.514009
0.617712
0.518018
0.613906
0.528524
-0.0310289
-0.417992
-0.0618484
0.510041
0.618266
0.51883
0.614222
0.527721
-0.0327232
-0.415407
-0.0554373
0.510456
0.613184
0.520735
0.618603
0.519182
-0.0362609
-0.388222
-0.0298309
0.490367
0.5431
0.237969
0.479598
0.510616
0.480416
0.504738
0.51708
0.496588
0.499159
0.521224
0.523419
0.513147
0.51511
0.523807
0.523926
0.518025
0.516456
0.520776
0.524525
0.52233
0.516801
0.516013
0.5218
0.525413
0.520565
0.514397
0.516908
0.524597
0.525243
0.517359
0.513245
0.519765
0.526917
0.523194
0.514166
0.514143
0.523369
0.527272
0.519559
0.512367
0.517125
0.5265
0.525721
0.515654
0.511864
0.520776
0.529052
0.523102
0.510776
0.511507
0.526218
0.531997
0.516136
0.501708
0.515531
0.538674
0.529462
0.499446
0.504536
0.540038
0.536152
0.4964
0.506621
0.553948
0.529268
0.475759
0.523316
0.503429
0.205021
-0.0181426
0.214534
0.495212
0.362289
0.192827
0.39004
0.51462
0.177487
-0.0900321
0.191651
0.520054
0.380274
0.194573
0.392754
0.516674
0.172995
-0.0950281
0.190719
0.521976
0.38314
0.195381
0.391619
0.518934
0.178281
-0.0951073
0.184858
0.520493
0.387084
0.194267
0.385843
0.520951
0.187129
-0.0942246
0.177099
0.518246
0.391453
0.193202
0.380232
0.522646
0.194573
-0.0925784
0.173186
0.517189
0.392999
0.192551
0.378529
0.522254
0.195348
-0.0900657
0.17546
0.517259
0.398982
0.208265
0.384824
0.509563
0.194774
-0.0732183
0.149394
0.47119
0.478961
-0.0549114
0.147342
0.3673
0.565368
0.470661
0.0976519
-0.0306619
0.315434
0.607533
0.377418
-0.00974241
0.0658114
0.485142
0.582576
0.204127
-0.051058
0.220543
0.589897
0.472978
0.0531341
-0.00737509