# vtk DataFile Version 3.0
PFC-RG simulation results
ASCII
DATASET STRUCTURED_POINTS
DIMENSIONS 128 128 1
ORIGIN 0 0 0
SPACING 1 1 1
POINT_DATA 16384
SCALARS psi double
lOOKUP_TABLE default
0.447153
0.408364
0.285501
0.292736
0.390568
0.409205
0.381404
0.420431
0.481641
0.47703
0.443436
0.457976
0.504482
0.515741
0.485937
0.470909
0.498544
0.531179
0.522499
0.486962
0.48053
0.516759
0.543173
0.518716
0.480269
0.488361
0.533809
0.548149
0.508816
0.47578
0.500736
0.549579
0.5505
0.501868
0.47257
0.510139
0.566855
0.556057
0.482521
0.454426
0.531981
0.595601
0.530892
0.436986
0.482941
0.595533
0.57047
0.460207
0.472006
0.585752
0.586977
0.480683
0.466181
0.561431
0.596407
0.520337
0.468416
0.514506
0.573658
0.55546
0.486554
0.4621
0.515539
0.570939
0.553477
0.49753
0.477401
0.502373
0.523503
0.504471
0.470634
0.468976
0.507883
0.544262
0.475696
0.299059
0.253687
0.443409
0.58082
0.506432
0.477873
0.591692
0.47532
0.00972293
-0.223096
0.142547
0.576187
0.574439
0.467524
0.601701
0.555174
0.0137917
-0.379906
-0.0374295
0.524979
0.622196
0.5061
0.594782
0.530607
-0.00144163
-0.391619
-0.061856
0.497804
0.611697
0.508106
0.593093
0.525559
0.00471659
-0.37488
-0.0562044
0.484342
0.596376
0.494598
0.56313
0.499464
0.0442268
-0.281901
-0.0252352
0.407789
0.51541
0.464534
0.493068
0.401629
0.140556
0.0525715
0.215562
0.328136
0.310199
0.338683
0.293942
0.270698
0.384805
0.386791
0.149934
0.0410959
0.300688
0.530814
0.328793
-0.00156197
0.0823249
0.467764
0.543653
0.175751
-0.0631213
0.209679
0.572379
0.451475
0.0295925
-0.0311654
0.368231
0.598922
0.293277
-0.0699478
0.0816473
0.508384
0.534655
0.117988
-0.0850873
0.24263
0.58057
0.396238
-0.0169862
-0.0139464
0.39365
0.565698
0.239883
-0.07444
0.100837
0.487546
0.490335
0.123127
-0.043936
0.225879
0.492484
0.370664
0.118367
0.123469
0.30188
0.35605
0.307994
0.308523
0.282887
0.189763
0.219621
0.416374
0.46959
0.238087
0.0771921
0.278686
0.55507
0.472343
0.1573
0.113418
0.4152
0.571819
0.32637
0.0949539
0.280611
0.586481
0.488125
0.11788
0.0566716
0.34383
0.48765
0.391815
0.352515
0.363982
0.268778
0.225832
0.378966
0.44914
0.246296
0.142718
0.373882
0.497191
0.238922
0.0858659
0.35937
0.541429
0.238865
-0.0195336
0.236145
0.513645
0.317324
0.0936314
0.312455
0.524567
0.262922
-0.00439971
0.227849
0.51483
0.335735
0.0973283
0.292017
0.511275
0.279572
0.0258794
0.242657
0.510072
0.327026
0.0854606
0.264153
0.486421
0.302827
0.0819739
0.247233
0.451963
0.30848
0.134021
0.261417
0.414284
0.343007
0.262379
0.286993
0.256683
0.215804
0.205131
0.130498
0.192186
0.393281
0.352911
-0.0128096
-0.166806
0.18108
0.472026
0.174288
-0.285517
-0.171345
0.35556
0.458064
-0.0477562
-0.378617
-0.0105159
0.482325
0.319976
-0.24929
-0.330186
0.207466
0.516009
0.10632
-0.375838
-0.168511
0.400352
0.430571
-0.12537
-0.38837
0.0543891
0.498393
0.240635
-0.309663
-0.287587
0.263072
0.468937
0.00944164
-0.390754
-0.115727
0.388163
0.328998
-0.184083
-0.347905
0.0607374
0.375615
0.134565
-0.22717
-0.178772
0.104715
0.179732
0.0671644
0.00989435
-0.0309046
-0.105255
-0.0240332
0.216718
0.231506
-0.0934634
-0.26453
0.054621
0.415413
0.234035
-0.241793
-0.268585
0.222504
0.482529
0.125934
-0.235262
0.0143276
0.444903
0.283383
-0.244056
-0.276678
0.22496
0.530549
0.439987
0.330278
0.226307
-0.0514137
-0.22242
0.039927
0.427055
0.514386
0.490328
0.580747
0.432881
-0.0975892
-0.374047
0.0162882
0.513682
0.558316
0.466747
0.58914
0.511542
-0.0351385
-0.394527
-0.0305584
0.517171
0.596839
0.484547
0.588267
0.532584
0.00137977
-0.38737
-0.0559274
0.499331
0.60265
0.492451
0.584623
0.531426
0.0152259
-0.372459
-0.0627002
0.475898
0.589196
0.485388
0.551865
0.500739
0.0699881
-0.251992
-0.0248335
0.386515
0.51233
0.456435
0.404016
0.288943
0.18262
0.275158
0.196468
0.246056
0.422088
0.439917
0.217631
0.123282
0.370064
0.575177
0.368029
0.0496397
0.132344
0.500507
0.575363
0.231522
0.00601553
0.256404
0.592369
0.485171
0.102909
0.0494833
0.411223
0.618666
0.345655
0.0256628
0.165886
0.545188
0.564847
0.195944
0.0243245
0.321341
0.615972
0.442359
0.0777369
0.0990668
0.469007
0.599758
0.285461
0.0256419
0.226107
0.5614
0.495725
0.138239
0.0570241
0.363622
0.555265
0.33775
0.0824304
0.164784
0.390097
0.40795
0.281145
0.238137
0.237642
0.202934
0.254432
0.405106
0.393706
0.163066
0.0642428
0.299697
0.522732
0.339451
-0.0205446
-0.00473183
0.398669
0.590744
0.267518
-0.0704687
0.118004
0.488593
0.382776
0.00800044
0.0432695
0.392404
0.450059
0.274051
0.311886
0.394223
0.157947
-0.070611
0.145311
0.468081
0.420822
0.287345
0.432725
0.476527
0.105486
-0.15027
0.148182
0.51367
0.444977
0.304047
0.470909
0.519063
0.110097
-0.188328
0.116286
0.519404
0.458094
0.289564
0.448624
0.527618
0.138654
-0.180676
0.101419
0.51128
0.457892
0.275496
0.42435
0.521098
0.15936
-0.154474
0.108696
0.497884
0.436735
0.247979
0.38357
0.496079
0.199099
-0.0822434
0.108087
0.418191
0.39627
0.260128
0.310189
0.382493
0.337613
0.402706
0.4301
0.364998
0.338837
0.417239
0.498531
0.506049
0.484207
0.485376
0.504768
0.519133
0.512502
0.492988
0.492184
0.518173
0.534831
0.516079
0.491267
0.501335
0.533107
0.537809
0.507157
0.488769
0.512883
0.543442
0.532181
0.495492
0.490897
0.526718
0.54784
0.521143
0.488374
0.500773
0.540182
0.54666
0.511202
0.488321
0.512291
0.548742
0.545241
0.50797
0.487963
0.515961
0.557999
0.552556
0.49806
0.471177
0.527602
0.58301
0.53639
0.455036
0.487794
0.586245
0.566222
0.460461
0.465437
0.581676
0.598341
0.489067
0.442873
0.526306
0.590797
0.522787
0.424631
0.449728
0.566897
0.580478
0.39482
0.228433
0.354403
0.587138
0.570871
0.458172
0.5395
0.540669
0.160365
-0.141727
0.132858
0.56206
0.564736
0.411422
0.513337
0.517014
0.0806924
-0.245076
0.0668105
0.526721
0.539652
0.412525
0.533227
0.51301
0.0512902
-0.265738
0.0595703
0.516879
0.521774
0.393047
0.526703
0.52199
0.0529904
-0.28857
0.0308507
0.511006
0.532913
0.395442
0.52278
0.531099
0.0659913
-0.295995
0.00806661
0.499373
0.539664
0.404788
0.523696
0.528367
0.0670864
-0.295198
-0.00554767
0.473249
0.521926
0.388462
0.479288
0.494557
0.135473
-0.144326
0.0761795
0.433232
0.487743
0.31157
0.525946
0.332113
0.0428889
0.126968
0.458384
0.513258
0.18643
-0.0276183
0.217968
0.56205
0.461253
0.0504791
-0.0330194
0.351464
0.6044
0.322796
-0.0548581
0.0668486
0.498292
0.558774
0.149797
-0.0861034
0.223044
0.589741
0.433748
-0.0011502
-0.0299295
0.392233
0.597994
0.261484
-0.0868677
0.101224
0.527158
0.518208
0.0900858
-0.0824105
0.268899
0.588788
0.377466
-0.0271124
0.00698468
0.420604
0.5675
0.226768
-0.0682919
0.132171
0.513795
0.491071
0.113176
-0.0377188
0.25228
0.516619
0.370118
0.094763
0.108756
0.323712
0.389105
0.288411
0.22784
0.247561
0.289073
0.359668
0.434647
0.40338
0.282291
0.226193
0.261119
0.32091
0.410215
0.44258
0.354363
0.368433
0.557537
0.500292
0.0210154
-0.266833
0.0837079
0.531278
0.513045
0.383446
0.532686
0.528629
0.0399889
-0.309849
0.0258411
0.518147
0.544706
0.42259
0.546674
0.510707
0.0117145
-0.331069
0.00915267
0.51165
0.556052
0.437519
0.554477
0.519799
0.0221326
-0.331654
6.10205e-05
0.50936
0.558602
0.430641
0.545957
0.530134
0.0448206
-0.321482
-0.00599252
0.502062
0.553387
0.419705
0.531897
0.526887
0.0613471
-0.292972
0.00903544
0.484161
0.514184
0.379766
0.49512
0.515093
0.117407
-0.186203
0.0716772
0.436265
0.375043
0.152582
0.478946
0.243553
-0.137356
-0.0388275
0.376481
0.420148
-0.0458625
-0.348244
-0.0104005
0.467975
0.334729
-0.228002
-0.347122
0.172862
0.516981
0.136443
-0.374771
-0.2105
0.372223
0.454515
-0.0948141
-0.410401
0.00567404
0.497743
0.289761
-0.290224
-0.327117
0.237077
0.511631
0.0631815
-0.400324
-0.148261
0.419595
0.405687
-0.167408
-0.395518
0.0776935
0.50206
0.208247
-0.338121
-0.2796
0.284568
0.46363
-0.0201468
-0.405685
-0.0989027
0.408505
0.322612
-0.207151
-0.353805
0.0816677
0.396756
0.132155
-0.244417
-0.180826
0.132095
0.208759
0.0502493
-0.0422791
-0.0014308
0.0877874
0.195433
0.243485
0.120438
-0.036104
0.0251338
0.246094
0.40349
0.422303
0.242755
-0.0685444
-0.122915
0.221295
0.474595
0.314568
0.177898
0.386446
0.458395
0.0776573
-0.163462
0.17386
0.534329
0.402488
0.214836
0.402152
0.501396
0.13017
-0.144542
0.160533
0.522556
0.407371
0.221498
0.402804
0.515876
0.162977
-0.125648
0.15244
0.515561
0.417358
0.232603
0.406924
0.523402
0.170889
-0.133929
0.133729
0.51102
0.430035
0.243466
0.409456
0.525908
0.172188
-0.14316
0.116173
0.499778
0.436636
0.26409
0.422869
0.516057
0.156714
-0.139104
0.122284
0.477112
0.393438
0.219565
0.376734
0.475341
0.135208
0.264095
0.499748
0.308534
0.0764972
0.216937
0.527082
0.53984
0.214274
0.0160405
0.250362
0.577579
0.493357
0.115681
0.0329895
0.383498
0.618209
0.362438
0.0168184
0.127943
0.522118
0.578469
0.209382
-0.00184641
0.27825
0.608578
0.470023
0.0833134
0.0595206
0.436206
0.619713
0.321907
0.0140565
0.18229
0.560861
0.552197
0.170379
0.0188208
0.336146
0.619974
0.420539
0.0523989
0.0954502
0.47873
0.594736
0.259607
0.0026974
0.224275
0.567144
0.486302
0.116611
0.044821
0.367028
0.559189
0.335079
0.0800382
0.165623
0.394466
0.421653
0.296196
0.240299
0.272113
0.330003
0.387684
0.358572
0.204608
0.133041
0.286245
0.455962
0.487488
0.460308
0.285432
-0.0924122
-0.250881
0.102078
0.519966
0.558253
0.497035
0.603906
0.472955
-0.0846723
-0.388679
0.0173835
0.541687
0.592525
0.498557
0.613333
0.510829
-0.058988
-0.408456
-0.0193329
0.532881
0.609523
0.508559
0.611415
0.522134
-0.0366196
-0.410395
-0.048243
0.514836
0.614115
0.511513
0.607229
0.530094
-0.0187437
-0.407807
-0.0638387
0.503464
0.613658
0.508799
0.601814
0.535079
-0.00437106
-0.400013
-0.0701199
0.491515
0.606573
0.506539
0.594624
0.524406
0.00930958
-0.34985
-0.0340681
0.463415
0.542282
0.452249
0.556728
0.534197
0.129186
0.496872
0.505551
0.378372
0.374299
0.491198
0.521554
0.478491
0.489175
0.530125
0.519406
0.486395
0.497675
0.533437
0.53629
0.508121
0.495851
0.516697
0.538296
0.528596
0.5022
0.499578
0.526136
0.54144
0.520281
0.494407
0.505095
0.537029
0.539897
0.507846
0.491036
0.51674
0.545055
0.531299
0.49728
0.496616
0.53006
0.545625
0.520393
0.494913
0.507662
0.538171
0.540757
0.513767
0.498333
0.516093
0.542127
0.540225
0.512463
0.494759
0.516519
0.553502
0.547082
0.494646
0.475983
0.53575
0.57485
0.515291
0.461989
0.52703
0.590243
0.516189
0.441955
0.500271
0.545183
0.474203
0.464607
0.528306
0.417928
0.2321
0.301032
0.447696
0.322214
0.18314
0.360452
0.508413
0.291652
0.118196
0.343607
0.5166
0.26395
0.0684068
0.318758
0.520587
0.27244
0.0694563
0.321016
0.527041
0.266418
0.0426535
0.292541
0.52248
0.287075
0.0653609
0.302609
0.522875
0.273808
0.0324967
0.269722
0.519952
0.301043
0.0621345
0.283271
0.519748
0.290717
0.0425469
0.265867
0.519298
0.304367
0.0537829
0.266994
0.516589
0.304623
0.056541
0.268771
0.516288
0.301963
0.0477714
0.25023
0.500858
0.320988
0.103799
0.288889
0.492181
0.315017
0.128636
0.300768
0.492299
0.374118
0.422676
0.303802
0.265
0.416638
0.417574
0.11108
-0.0166839
0.315605
0.593673
0.344301
-0.0460091
0.051139
0.485275
0.569684
0.173076
-0.0787392
0.210142
0.586111
0.458322
0.0258095
-0.0329257
0.374813
0.607518
0.296899
-0.0703072
0.0836022
0.516342
0.545092
0.122709
-0.0860826
0.247621
0.597188
0.410613
-0.0182629
-0.0137214
0.41595
0.592793
0.239071
-0.0865727
0.127757
0.543223
0.506971
0.0796078
-0.0661013
0.295769
0.596259
0.368239
-0.0263929
0.0263825
0.439689
0.568944
0.216125
-0.0713507
0.146768
0.527241
0.476507
0.0870522
-0.0233889
0.294176
0.492271
0.270866
0.0582041
0.199619
0.418345
0.451007
0.449831
0.401901
0.101241
-0.161772
0.0619764
0.489529
0.588228
0.517044
0.581599
0.460671
-0.056903
-0.36528
0.00506258
0.521509
0.5927
0.509757
0.610932
0.493596
-0.066789
-0.396725
-0.00640155
0.529918
0.598149
0.505445
0.611198
0.508336
-0.0534664
-0.406076
-0.0290023
0.521899
0.604759
0.50378
0.606083
0.524604
-0.0276346
-0.40685
-0.053223
0.509693
0.611371
0.506868
0.603692
0.534332
-0.0109655
-0.406387
-0.0687746
0.499797
0.613581
0.508912
0.601395
0.537195
0.00035214
-0.399108
-0.0782049
0.483724
0.615657
0.520965
0.580583
0.510446
0.0795666
-0.231447
-0.0256865
0.365204
0.531234
0.125438
0.115354
0.209691
0.423949
0.337044
-0.139056
-0.321401
0.130887
0.505504
0.167944
-0.3606
-0.233234
0.351557
0.466033
-0.0720231
-0.415201
-0.0238323
0.486995
0.31455
-0.270791
-0.349372
0.202752
0.5175
0.0993116
-0.393984
-0.185602
0.396664
0.435755
-0.130026
-0.40912
0.0383357
0.50694
0.25791
-0.316127
-0.310469
0.265202
0.502824
0.0278437
-0.411074
-0.123506
0.435936
0.385571
-0.194364
-0.391314
0.101259
0.505744
0.186893
-0.351711
-0.267183
0.3018
0.460035
-0.0377277
-0.410058
-0.0816027
0.421772
0.307803
-0.227221
-0.3378
0.107931
0.362525
0.0761706
-0.183028
-0.00798604
0.2383
0.256813
0.262269
0.279486
0.0921414
-0.0570423
0.172736
0.443345
0.344216
0.216651
0.408052
0.484824
0.112635
-0.153932
0.147368
0.506463
0.407279
0.249243
0.431821
0.504203
0.119627
-0.150751
0.15724
0.519368
0.417391
0.255303
0.437008
0.513401
0.127353
-0.156257
0.144947
0.520661
0.430449
0.257754
0.43065
0.522224
0.146677
-0.155129
0.129534
0.515733
0.435962
0.251606
0.417122
0.525734
0.165003
-0.146723
0.123648
0.511277
0.434877
0.243157
0.40459
0.524585
0.178429
-0.133655
0.122596
0.502679
0.435044
0.241838
0.372136
0.496787
0.24829
-0.0186588
0.0772255
0.321528
0.430405
0.0840873
0.244448
0.384452
0.546997
0.505728
0.182885
0.0401623
0.344207
0.611705
0.387323
0.0236275
0.10835
0.507574
0.585586
0.219031
-0.0138118
0.252554
0.599098
0.482249
0.0866007
0.034434
0.408168
0.620865
0.33913
0.00749755
0.148582
0.540603
0.56714
0.187737
0.000965334
0.301258
0.615758
0.449648
0.0654253
0.0689215
0.454666
0.614856
0.296869
0.00160794
0.19402
0.570444
0.53695
0.145521
0.0123775
0.346008
0.619553
0.401222
0.0350073
0.0961982
0.485878
0.589386
0.244725
-0.00305151
0.23397
0.575059
0.475693
0.100576
0.0472058
0.370988
0.53132
0.323773
0.166552
0.267983
0.317428
0.217902
0.267359
0.439804
0.446296
0.414444
0.528631
0.436718
-0.0458063
-0.306429
0.0811509
0.547976
0.537753
0.41183
0.543833
0.502223
0.00101034
-0.315412
0.0498785
0.533342
0.542349
0.421067
0.550638
0.508279
0.00701192
-0.315911
0.041019
0.526994
0.543354
0.420203
0.548312
0.517966
0.023387
-0.317498
0.0213019
0.516686
0.548288
0.420117
0.543677
0.527981
0.0399179
-0.321563
0.000370698
0.507422
0.555217
0.424298
0.542499
0.533809
0.0485873
-0.324938
-0.0124846
0.500341
0.557874
0.427736
0.54042
0.531938
0.0575358
-0.311486
-0.0194363
0.480715
0.571884
0.434448
0.424463
0.410057
0.268316
0.33622
0.490056
0.439236
0.392858
0.486027
0.557968
0.525917
0.489318
0.501935
0.526274
0.533778
0.524144
0.507002
0.503365
0.522085
0.536522
0.522251
0.50079
0.507366
0.532562
0.536239
0.512012
0.498148
0.51716
0.539632
0.529756
0.502166
0.500241
0.527786
0.541702
0.519376
0.495496
0.507988
0.537563
0.537622
0.508021
0.495481
0.519533
0.542388
0.528798
0.500863
0.502027
0.52968
0.541102
0.519881
0.5001
0.511885
0.536579
0.536473
0.513141
0.502628
0.519265
0.538751
0.535047
0.511728
0.491804
0.50386
0.541751
0.540669
0.471327
0.439301
0.525275
0.56043
0.389749
0.244128
0.389644
0.580617
0.510692
0.430432
0.555958
0.480961
-0.00315269
-0.271656
0.102721
0.548985
0.52627
0.406937
0.550999
0.512104
0.00944473
-0.305296
0.0593452
0.53435
0.533181
0.409758
0.545806
0.511147
0.0136443
-0.309358
0.0451098
0.526679
0.537825
0.412142
0.542683
0.517446
0.0269727
-0.312344
0.0251882
0.516546
0.542928
0.411492
0.536517
0.527279
0.0475661
-0.308942
0.0105184
0.508091
0.544549
0.407367
0.529001
0.532595
0.0621877
-0.30255
0.00621059
0.502447
0.539769
0.401233
0.522797
0.529164
0.0671288
-0.286259
0.0171277
0.488047
0.513176
0.368005
0.454954
0.50635
0.273996
0.457111
0.53216
0.198465
-0.125128
0.0606694
0.497092
0.558604
0.180673
-0.0593624
0.204955
0.572743
0.471721
0.049623
-0.0351633
0.355913
0.609958
0.324073
-0.0533785
0.0729402
0.504698
0.561309
0.152609
-0.0787288
0.231136
0.594295
0.438376
0.00743696
-0.0210966
0.397602
0.604163
0.272385
-0.0763598
0.106674
0.533121
0.531057
0.103274
-0.0769784
0.273663
0.602997
0.393047
-0.0249332
0.00679071
0.437634
0.589786
0.225256
-0.0808738
0.152613
0.557056
0.496139
0.0684018
-0.0528073
0.318375
0.595581
0.348465
-0.0328223
0.0343352
0.433891
0.556172
0.223604
-0.0773354
0.0718766
0.430462
0.475059
0.214205
0.160787
0.437309
0.507124
0.129886
-0.115205
0.183101
0.519074
0.417963
0.276738
0.456158
0.498333
0.0921882
-0.168422
0.160419
0.529021
0.424561
0.266329
0.449407
0.509605
0.106374
-0.169682
0.150041
0.526668
0.430148
0.265887
0.443657
0.514925
0.121266
-0.167258
0.137298
0.521033
0.436716
0.265655
0.436166
0.521708
0.138881
-0.167157
0.119709
0.514876
0.446968
0.269911
0.431861
0.52662
0.14946
-0.17128
0.10407
0.509449
0.454482
0.275956
0.432803
0.527707
0.149549
-0.173863
0.100476
0.502268
0.44538
0.2769
0.439253
0.513669
0.12345
-0.163146
0.147769
0.525137
0.392745
0.296211
0.479415
0.0958169
-0.348808
-0.175226
0.361852
0.447648
-0.057134
-0.391635
-0.0376057
0.467874
0.334527
-0.241675
-0.359382
0.172496
0.517986
0.128539
-0.384498
-0.211783
0.375264
0.451613
-0.103232
-0.415854
0.00566466
0.498102
0.286939
-0.295465
-0.332866
0.233632
0.512878
0.0655437
-0.404455
-0.157477
0.417767
0.415898
-0.160162
-0.403811
0.0681301
0.5126
0.229951
-0.334966
-0.293274
0.288897
0.494693
-0.000103779
-0.416363
-0.0993936
0.449986
0.365798
-0.21708
-0.379673
0.129047
0.504769
0.163054
-0.352801
-0.245414
0.304898
0.454519
-0.00558724
-0.378296
-0.135477
0.336261
0.375305
0.0752345
0.0741444
0.420462
0.445728
-0.0618502
-0.38136
-0.00577761
0.51975
0.588515
0.495667
0.593811
0.4809
-0.0740983
-0.396457
0.000371701
0.534027
0.595176
0.502106
0.609766
0.500295
-0.0653617
-0.40271
-0.00938683
0.533321
0.600659
0.502589
0.608506
0.511201
-0.0486771
-0.403865
-0.0279829
0.523284
0.605505
0.503449
0.605159
0.523897
-0.0264959
-0.403258
-0.0496313
0.510185
0.608604
0.502976
0.600713
0.533943
-0.00776146
-0.400808
-0.0639441
0.500649
0.608985
0.501933
0.597887
0.53714
-0.000177328
-0.394382
-0.0613309
0.494848
0.597246
0.498935
0.60245
0.525724
-0.0159306
-0.354242
0.0316188
0.511157
0.400198
0.150723
0.51576
0.35414
0.0633256
0.167547
0.506946
0.550059
0.217318
0.00478338
0.24425
0.581777
0.493227
0.105443
0.0244657
0.384273
0.619627
0.355005
0.00538869
0.123187
0.523426
0.57525
0.197504
-0.0143931
0.273018
0.607594
0.464102
0.0695751
0.0450231
0.429024
0.618064
0.315807
-0.00147711
0.165557
0.554215
0.553509
0.165175
0.000582067
0.318749
0.619091
0.428869
0.0470891
0.0745184
0.468102
0.607899
0.272731
-0.00994729
0.205077
0.578044
0.520514
0.125318
0.017282
0.363127
0.615829
0.385815
0.0444014
0.120887
0.485681
0.581399
0.278735
0.0431546
0.225008
0.551333
0.528511
0.203416
0.109705
0.38338
0.519269
0.250824
0.0527559
0.288848
0.493773
0.252678
0.0389895
0.285517
0.513477
0.288743
0.0865724
0.324137
0.514252
0.246582
0.0285704
0.287843
0.520007
0.287247
0.0782336
0.319398
0.519079
0.253494
0.0257372
0.279281
0.521069
0.295283
0.0748354
0.307272
0.520278
0.266271
0.0252941
0.265661
0.520005
0.307689
0.0753077
0.295291
0.520549
0.277798
0.0229886
0.25088
0.518477
0.320688
0.0802366
0.289344
0.520539
0.283555
0.019835
0.240572
0.515431
0.327025
0.0874923
0.29246
0.519255
0.283536
0.0279316
0.246692
0.501148
0.305927
0.098533
0.330531
0.534294
0.269747
0.223228
0.476131
0.497425
0.499917
0.54674
0.525737
0.472771
0.492776
0.542674
0.533175
0.49573
0.500862
0.532828
0.536866
0.512833
0.501961
0.518564
0.535372
0.527654
0.507762
0.505923
0.525313
0.536208
0.52086
0.502459
0.510308
0.532914
0.534518
0.511688
0.500119
0.518611
0.538446
0.528017
0.503218
0.503166
0.528336
0.539202
0.518511
0.498903
0.511223
0.535844
0.534194
0.509499
0.500598
0.520659
0.538416
0.52698
0.503818
0.50407
0.528757
0.540822
0.518014
0.493363
0.511113
0.54885
0.540072
0.492555
0.489872
0.538471
0.550343
0.52486
0.538633
0.512807
0.339219
0.20543
0.330072
0.529528
0.538553
0.509669
0.604241
0.46878
-0.072504
-0.382914
0.00674007
0.537129
0.606991
0.519149
0.618159
0.494985
-0.0761527
-0.408914
-0.00894139
0.536862
0.607827
0.515444
0.618036
0.504742
-0.0658371
-0.413193
-0.0243889
0.529164
0.610634
0.514038
0.614641
0.516871
-0.0459784
-0.414397
-0.04632
0.516533
0.614471
0.513979
0.610852
0.529757
-0.0241886
-0.414128
-0.067025
0.504472
0.617972
0.514757
0.607882
0.538441
-0.00904351
-0.413185
-0.0799593
0.496294
0.619745
0.516311
0.605347
0.539611
0.00294952
-0.398811
-0.0838567
0.474719
0.609507
0.518473
0.58446
0.546281
0.210531
0.357527
0.229165
0.219788
0.444234
0.473548
0.132713
-0.031159
0.30397
0.602025
0.356808
-0.0421202
0.0514894
0.488365
0.573442
0.176044
-0.0732443
0.217625
0.590007
0.458948
0.0307505
-0.0219669
0.38363
0.609922
0.300204
-0.0597137
0.0957954
0.522279
0.54853
0.132186
-0.0727314
0.255919
0.60117
0.419433
-0.00428835
-0.00399425
0.419784
0.60025
0.253083
-0.0758412
0.130809
0.547775
0.51915
0.0903687
-0.0640218
0.29829
0.607505
0.377907
-0.0296365
0.0248122
0.455664
0.584712
0.205715
-0.0866409
0.169744
0.568287
0.471491
0.0338746
-0.0430961
0.348871
0.565357
0.294985
0.0179113
0.106201
0.2911
0.319054
0.319102
0.345088
0.296567
0.29992
0.471382
0.477528
0.115693
-0.100723
0.203575
0.515055
0.377625
0.220973
0.422305
0.508916
0.137178
-0.119025
0.188454
0.524526
0.391464
0.221057
0.41712
0.513518
0.146511
-0.121389
0.17697
0.522964
0.400449
0.221901
0.41015
0.518735
0.161167
-0.122189
0.161273
0.518834
0.409999
0.221364
0.40002
0.523489
0.178373
-0.120056
0.14747
0.514161
0.416499
0.218751
0.389856
0.526279
0.192118
-0.116579
0.139125
0.511282
0.421594
0.218075
0.381175
0.524697
0.205867
-0.106709
0.121772
0.493851
0.458361
0.274365
0.34997
0.455099
0.340105
0.375493
0.0861396
0.0184065
0.302377
0.337046
-0.117218
-0.332762
0.113301
0.504791
0.170038
-0.367969
-0.240754
0.351381
0.465912
-0.0774385
-0.419107
-0.0213842
0.488755
0.30934
-0.276993
-0.348519
0.207194
0.516649
0.0932494
-0.397489
-0.18397
0.398228
0.433818
-0.133118
-0.411211
0.0367478
0.506517
0.259589
-0.315794
-0.314945
0.260843
0.506167
0.0351521
-0.41149
-0.131318
0.434938
0.396646
-0.185843
-0.396425
0.0956539
0.516281
0.204077
-0.35003
-0.274911
0.311098
0.485225
-0.0278244
-0.418767
-0.0699563
0.462472
0.330058
-0.24714
-0.33745
0.187342
0.465319
0.0839271
-0.295947
-0.106266
0.319774
0.498611
0.420258
0.187592
-0.11924
-0.192581
0.151705
0.515657
0.51911
0.453289
0.579434
0.482676
-0.0436403
-0.338412
0.0505086
0.538263
0.551374
0.441822
0.569687
0.502412
-0.0214961
-0.341096
0.0338854
0.532211
0.556225
0.441403
0.565881
0.511897
-0.00419388
-0.34104
0.016221
0.522829
0.560954
0.441144
0.56108
0.523038
0.0163272
-0.341356
-0.00482812
0.511668
0.566364
0.442048
0.556692
0.532566
0.0336806
-0.342174
-0.0223325
0.502971
0.570938
0.443081
0.553143
0.538289
0.0458589
-0.340838
-0.033689
0.49619
0.577948
0.445575
0.531536
0.528705
0.111784
-0.245694
-0.0603934
0.345506
0.520502
0.288658
0.300326
0.29483
0.469718
0.502957
0.193259
0.0303598
0.33583
0.61515
0.386226
0.0109169
0.0975198
0.506489
0.584571
0.209718
-0.0247096
0.249221
0.599264
0.475606
0.0734567
0.0250982
0.406624
0.618632
0.328381
-0.0072503
0.139694
0.538323
0.562463
0.175069
-0.0142992
0.29205
0.612708
0.444328
0.0523578
0.0532842
0.445707
0.612969
0.292585
-0.0113068
0.179221
0.564498
0.538786
0.142816
-0.000563161
0.333928
0.620233
0.408353
0.0316888
0.0828499
0.481724
0.600583
0.252051
-0.0123327
0.227377
0.589147
0.495528
0.10484
0.0535995
0.41224
0.587013
0.324531
0.0907131
0.227643
0.474881
0.563608
0.515686
0.301223
-0.047167
-0.154835
0.18143
0.524215
0.491202
0.406951
0.549482
0.491653
0.00195385
-0.279638
0.0904047
0.536898
0.511089
0.388095
0.534333
0.505536
0.0186212
-0.286389
0.0716864
0.53104
0.517158
0.387862
0.529229
0.513166
0.0340584
-0.287972
0.0533832
0.522516
0.523272
0.387891
0.523161
0.522533
0.0536816
-0.287672
0.0339984
0.512817
0.528742
0.387151
0.516375
0.53067
0.0719746
-0.285492
0.0196447
0.505148
0.531568
0.385416
0.510891
0.534955
0.082774
-0.283778
0.0105291
0.497614
0.533111
0.387361
0.498528
0.524764
0.118228
-0.229046
-0.0250112
0.371889
0.498152
0.18712
0.558955
0.560434
0.487414
0.532385
0.557763
0.515277
0.496462
0.518444
0.532329
0.528447
0.521611
0.513524
0.510491
0.521146
0.531199
0.522559
0.507915
0.511702
0.528367
0.531003
0.515327
0.506405
0.518572
0.532798
0.526497
0.509127
0.507977
0.525367
0.534121
0.51991
0.504633
0.512639
0.531832
0.531876
0.512159
0.503568
0.520012
0.535928
0.52606
0.505546
0.506693
0.528019
0.535985
0.517756
0.502199
0.514288
0.534849
0.53115
0.509718
0.504781
0.522589
0.535045
0.525923
0.509115
0.503855
0.518181
0.537399
0.521923
0.473825
0.478618
0.556101
0.534702
0.334374
0.230124
0.401031
0.534153
0.40506
0.333516
0.505366
0.49053
0.0700695
-0.175809
0.157249
0.528692
0.443079
0.304315
0.479019
0.505989
0.0777151
-0.19657
0.138878
0.529904
0.448674
0.298756
0.470864
0.511566
0.0904126
-0.197759
0.12509
0.525106
0.45502
0.297418
0.463026
0.518345
0.107659
-0.197827
0.107441
0.518194
0.4632
0.297795
0.455278
0.525125
0.124876
-0.198203
0.089885
0.511217
0.471008
0.299756
0.450028
0.529513
0.135851
-0.198672
0.079365
0.506309
0.473283
0.300058
0.446687
0.525941
0.136095
-0.189906
0.0875963
0.498385
0.458785
0.286457
0.40718
0.487567
0.224508
0.218568
0.561152
0.347893
0.000363759
0.106266
0.491398
0.555854
0.196015
-0.0431232
0.211889
0.575727
0.477713
0.0596598
-0.0243881
0.362923
0.612425
0.327659
-0.0435357
0.08502
0.51094
0.562705
0.158635
-0.0652844
0.243007
0.598333
0.4416
0.0186197
-0.00617562
0.406098
0.60728
0.280475
-0.06147
0.118626
0.537734
0.536741
0.116404
-0.0631307
0.280318
0.606836
0.402638
-0.0117886
0.0151114
0.441186
0.595986
0.235424
-0.0730749
0.156399
0.562055
0.504374
0.0750493
-0.0489436
0.325164
0.605809
0.354149
-0.0313868
0.0481016
0.45929
0.558242
0.188333
-0.0860745
0.154767
0.532345
0.41758
-0.0845781
-0.232372
0.206821
0.60501
0.551752
0.451126
0.580242
0.48082
-0.0657845
-0.381477
0.0135218
0.538964
0.591811
0.495698
0.603523
0.494453
-0.0652545
-0.390635
0.00674062
0.537663
0.591815
0.493362
0.603326
0.504699
-0.0518829
-0.392887
-0.00960064
0.529146
0.595672
0.493107
0.599992
0.516968
-0.031175
-0.393406
-0.0312966
0.516851
0.599949
0.493054
0.595601
0.529239
-0.00926934
-0.39246
-0.0515379
0.504762
0.603014
0.49307
0.591946
0.537555
0.00593159
-0.390048
-0.0618655
0.496816
0.601767
0.494224
0.593487
0.535668
0.00214791
-0.380609
-0.0416784
0.493879
0.567372
0.463708
0.583567
0.539592
0.033514
0.431636
0.523936
0.0911997
-0.374284
-0.201878
0.354656
0.459628
-0.049873
-0.400452
-0.0479831
0.466989
0.336063
-0.244397
-0.361833
0.173733
0.517949
0.124316
-0.38738
-0.209175
0.378212
0.448819
-0.10849
-0.416286
0.00950962
0.499056
0.282842
-0.299015
-0.332029
0.235618
0.512011
0.0629545
-0.40595
-0.157943
0.417329
0.415992
-0.159866
-0.405334
0.0653819
0.512464
0.233043
-0.333703
-0.296485
0.286353
0.497792
0.00481919
-0.416457
-0.102457
0.451822
0.372843
-0.213627
-0.382264
0.13071
0.515851
0.171245
-0.356871
-0.24464
0.325002
0.468513
-0.0246544
-0.390632
-0.0822883
0.405562
0.325574
-0.148376
-0.20751
0.276757
0.542944
0.227688
-0.0259694
0.247642
0.515796
0.311502
0.109965
0.338797
0.512828
0.223338
-0.00561316
0.264707
0.519716
0.308545
0.111897
0.345413
0.516086
0.222668
-0.00856426
0.260972
0.521412
0.314248
0.109679
0.337169
0.518676
0.234311
-0.00903506
0.248715
0.520552
0.325281
0.108986
0.32529
0.520591
0.248679
-0.00929759
0.23396
0.518611
0.337486
0.110123
0.314632
0.521605
0.26062
-0.0095482
0.221828
0.516078
0.34593
0.112795
0.309922
0.52059
0.264557
-0.00588237
0.222969
0.510912
0.33646
0.114716
0.323137
0.516537
0.243537
-0.000640596
0.255675
0.501648
0.212545
0.533512
0.594843
0.270565
-0.051535
0.0980641
0.503905
0.574008
0.216649
-0.0238967
0.222301
0.579839
0.491259
0.0907713
0.00904025
0.379515
0.618243
0.345581
-0.00913888
0.114631
0.521919
0.57051
0.184169
-0.0285031
0.266961
0.605753
0.455853
0.0537757
0.0317066
0.424199
0.614834
0.30492
-0.017961
0.153568
0.550031
0.54904
0.152923
-0.0154569
0.308574
0.61594
0.423923
0.0347785
0.0606571
0.460993
0.60603
0.267679
-0.020939
0.194943
0.574775
0.520069
0.118797
0.00477184
0.356179
0.619103
0.385003
0.0264395
0.101687
0.489499
0.596889
0.272404
0.0137604
0.198849
0.532371
0.528293
0.267956
0.247467
0.519204
0.505124
-0.0228035
-0.36783
0.000693009
0.534519
0.609245
0.516612
0.612879
0.492728
-0.0785901
-0.412402
-0.0084773
0.540418
0.611047
0.519709
0.620908
0.498548
-0.0778504
-0.416924
-0.0173415
0.535159
0.612148
0.518604
0.619356
0.509996
-0.0602172
-0.418287
-0.0375942
0.523428
0.615688
0.518261
0.615714
0.523541
-0.0374781
-0.418359
-0.0604244
0.509922
0.619382
0.51846
0.611979
0.535355
-0.0171098
-0.417377
-0.0785642
0.498705
0.62164
0.519692
0.610249
0.540272
-0.00755858
-0.412915
-0.08171
0.491478
0.616898
0.523712
0.615339
0.534442
-0.00367261
-0.373867
-0.047778
0.460159
0.511352
0.271634
0.483382
0.511311
0.487862
0.510261
0.515803
0.493629
0.501182
0.527424
0.525944
0.508702
0.510919
0.526202
0.528215
0.516954
0.512041
0.519957
0.527761
0.523936
0.514378
0.513498
0.522877
0.528163
0.520648
0.511583
0.515438
0.526703
0.52756
0.516012
0.510021
0.519531
0.529966
0.524535
0.511237
0.511098
0.524859
0.530969
0.519398
0.508126
0.515145
0.529701
0.528805
0.513559
0.507778
0.52074
0.532472
0.524391
0.508227
0.50902
0.526778
0.533973
0.51663
0.500578
0.51469
0.538757
0.529327
0.499209
0.505563
0.540438
0.532994
0.49144
0.499234
0.537091
0.504111
0.455898
0.51194
0.483708
0.175068
-0.0317982
0.222905
0.49913
0.355699
0.197009
0.401843
0.507953
0.159765
-0.085946
0.21257
0.523465
0.366077
0.191002
0.399914
0.512907
0.16323
-0.0891007
0.206326
0.524101
0.372752
0.19032
0.393029
0.516903
0.175743
-0.0903566
0.191812
0.521047
0.382904
0.190222
0.382849
0.521086
0.191969
-0.0902494
0.175757
0.516942
0.392972
0.189923
0.372343
0.524344
0.207003
-0.0888868
0.163088
0.513317
0.400559
0.19081
0.365741
0.524976
0.215331
-0.0857816
0.15741
0.510131
0.411048
0.207155
0.365449
0.511333
0.229575
-0.0460978
0.144252
0.46559
0.506922
-0.0375429
0.112869
0.3381
0.562848
0.47295
0.092778
-0.0308993
0.323603
0.608268
0.362779
-0.0232527
0.0689441
0.493421
0.575914
0.186992
-0.0572951
0.228523
0.593448
0.462612
0.0419193
-0.00678554
0.393056