# vtk DataFile Version 3.0
PFC-RG simulation results
ASCII
DATASET STRUCTURED_POINTS
DIMENSIONS 64 64 1
ORIGIN 0 0 0
SPACING 1 1 1
POINT_DATA 4096
SCALARS psi double
lOOKUP_TABLE default
0.482664
0.511789
0.430299
0.380294
0.436278
0.475838
0.456139
0.468811
0.522784
0.530005
0.481986
0.460498
0.506399
0.558203
0.541377
0.475413
0.460875
0.537955
0.586426
0.515606
0.435333
0.492985
0.5925
0.552404
0.45448
0.486807
0.590707
0.558823
0.433596
0.434809
0.560431
0.60587
0.534225
0.48884
0.49612
0.472862
0.412268
0.384676
0.427318
0.485779
0.518269
0.533896
0.418305
0.113375
-0.04073
0.217501
0.536566
0.5567
0.510933
0.609783
0.495466
-0.0124192
-0.326938
-0.00157207
0.484186
0.576142
0.488646
0.525998
0.45573
0.149091
-0.0324029
0.116159
0.343406
0.437776
0.220613
0.239787
0.330387
0.450838
0.394401
0.120762
0.00781694
0.285207
0.547125
0.35722
-0.00285249
0.0384407
0.422284
0.547525
0.223779
-0.0429526
0.152593
0.501582
0.468402
0.121334
-0.00620759
0.257672
0.486462
0.36767
0.158116
0.163869
0.28491
0.316551
0.330212
0.403255
0.370741
0.202923
0.186671
0.398804
0.486832
0.312759
0.228834
0.421607
0.546854
0.323705
0.0731732
0.200612
0.446905
0.365081
0.19029
0.321247
0.471614
0.286973
0.119119
0.317331
0.480472
0.235494
0.0163446
0.242679
0.494103
0.330329
0.122951
0.278156
0.4773
0.374231
0.202027
0.222629
0.3285
0.369427
-0.0282085
-0.037829
0.173126
0.422922
0.337338
-0.0814324
-0.248105
0.136266
0.482316
0.20272
-0.288635
-0.210807
0.316386
0.452838
-0.0208483
-0.362498
-0.0506376
0.409551
0.297308
-0.19456
-0.303566
0.100827
0.364302
0.119855
-0.194239
-0.147223
0.0729247
0.140972
0.127472
0.150441
0.0436196
-0.179925
-0.145405
0.209131
0.399367
0.232093
0.160596
0.403763
0.460937
0.0169148
-0.361412
-0.0941723
0.432319
0.563179
0.459403
0.522373
0.458584
-0.0183633
-0.351391
-0.0256829
0.486822
0.573533
0.47566
0.569862
0.512657
0.0238625
-0.32538
-0.0277784
0.468996
0.576654
0.436435
0.385335
0.379705
0.283355
0.120009
0.115124
0.286018
0.488051
0.470887
0.214364
0.10195
0.359681
0.598505
0.405947
0.0675028
0.129244
0.498421
0.582773
0.243927
0.0184629
0.25596
0.571652
0.46505
0.114753
0.0740232
0.384812
0.539561
0.309397
0.0814373
0.170535
0.36352
0.37173
0.289919
0.272539
0.195801
0.0421857
0.0908061
0.377208
0.480292
0.242752
0.126505
0.37811
0.499153
0.154932
-0.130121
0.127273
0.497023
0.439808
0.275427
0.435533
0.526698
0.154656
-0.157811
0.113963
0.510558
0.462663
0.296483
0.441091
0.510803
0.136039
-0.162797
0.107417
0.478867
0.40723
0.20195
0.287188
0.449623
0.38509
0.354649
0.460298
0.462874
0.395409
0.434406
0.531489
0.545877
0.502351
0.492775
0.517516
0.533433
0.527242
0.5109
0.502092
0.513547
0.535552
0.537904
0.514237
0.495955
0.515764
0.552129
0.549281
0.498909
0.469188
0.518761
0.576175
0.535311
0.435256
0.433511
0.526777
0.52362
0.419905
0.435782
0.569343
0.481711
0.104048
-0.065702
0.253669
0.579309
0.510116
0.399732
0.548175
0.534636
0.0745192
-0.241004
0.0900325
0.550558
0.540753
0.388793
0.516051
0.524415
0.0687177
-0.27072
0.0390467
0.49951
0.506276
0.373141
0.507181
0.508348
0.0632956
-0.237639
0.0660048
0.468028
0.469001
0.223349
0.527732
0.379626
-0.00794702
0.0323382
0.446179
0.561998
0.203732
-0.0532105
0.194727
0.561917
0.476559
0.0672811
-0.0318889
0.334
0.594789
0.343698
-0.0247025
0.0619817
0.462015
0.550205
0.198503
-0.0467709
0.176053
0.517173
0.473236
0.128001
-0.031391
0.191291
0.470543
0.451578
0.252679
0.226874
0.384153
0.349525
0.0200676
-0.125079
0.199395
0.526125
0.471028
0.392291
0.554702
0.507301
0.000322137
-0.32704
0.0248318
0.516816
0.543551
0.424011
0.553321
0.523439
0.0209431
-0.3326
0.00220631
0.503947
0.547814
0.43447
0.555031
0.510223
0.0335912
-0.231773
0.117218
0.428043
0.243925
-0.0135567
0.434532
0.258208
-0.24767
-0.202689
0.327317
0.462668
-0.0351691
-0.390267
-0.0454124
0.466452
0.347992
-0.221547
-0.356577
0.153601
0.507978
0.14793
-0.36089
-0.222628
0.336003
0.433571
-0.0726507
-0.385914
-0.0387605
0.412004
0.287762
-0.193683
-0.325367
0.0494891
0.389087
0.248821
-0.131802
-0.2112
0.106566
0.365366
0.284222
0.208955
0.401455
0.448659
0.086823
-0.137122
0.173352
0.500054
0.368698
0.194754
0.387184
0.500507
0.15215
-0.119829
0.168263
0.519047
0.403128
0.217483
0.399265
0.517936
0.179448
-0.0946781
0.168185
0.479915
0.365229
0.251132
0.454363
0.4251
-0.0527591
0.131683
0.508876
0.394488
0.0428697
0.109442
0.502879
0.58549
0.223659
-0.019908
0.228397
0.585321
0.502927
0.110391
0.0194305
0.37382
0.617681
0.364866
0.013561
0.11739
0.507346
0.56632
0.211433
0.00875791
0.260074
0.556439
0.451951
0.132468
0.0729546
0.341902
0.553192
0.379229
-0.0190894
-0.150872
0.171756
0.53456
0.54878
0.461429
0.555003
0.468441
-0.0415816
-0.36422
-0.00393984
0.519756
0.600677
0.509769
0.608424
0.514007
-0.038485
-0.401253
-0.0377067
0.516234
0.611165
0.513286
0.607068
0.52105
-0.0180092
-0.382901
-0.0489666
0.471382
0.571472
0.512967
0.609113
0.488705
0.0349464
0.442098
0.551293
0.51928
0.448801
0.48533
0.539277
0.524291
0.501219
0.516356
0.525225
0.507701
0.502892
0.522353
0.532737
0.51986
0.506873
0.512227
0.528239
0.533212
0.517326
0.501555
0.51636
0.545535
0.533935
0.492196
0.499442
0.552932
0.54593
0.486152
0.502462
0.535841
0.4183
0.29854
0.420523
0.54768
0.355555
0.150259
0.320519
0.508063
0.289634
0.0695768
0.286644
0.51534
0.310972
0.0996872
0.317112
0.519602
0.266647
0.0242341
0.260184
0.517218
0.314367
0.0845052
0.29341
0.511115
0.280154
0.0336542
0.242673
0.507207
0.36068
0.145437
0.27991
0.47682
0.415187
0.360891
0.23773
0.322924
0.499874
0.444826
0.12472
0.00385021
0.319904
0.597619
0.372429
-0.0193754
0.0459793
0.469747
0.580675
0.204111
-0.0647973
0.195448
0.574711
0.478412
0.0567078
-0.0319481
0.351285
0.603084
0.32063
-0.0494512
0.0869267
0.503396
0.508469
0.106842
-0.0143096
0.320035
0.555063
0.483727
0.429682
0.350735
-0.00292901
-0.26756
0.0218427
0.498756
0.592356
0.510188
0.596357
0.497345
-0.0397265
-0.38922
-0.0297886
0.513432
0.60014
0.498213
0.597275
0.52212
-0.0185999
-0.397521
-0.0555689
0.5038
0.612723
0.496146
0.568471
0.539953
0.0968675
-0.306359
-0.138021
0.356971
0.612562
-0.0162305
-0.119
0.132582
0.444479
0.33022
-0.166828
-0.341476
0.113838
0.50594
0.193242
-0.348145
-0.257217
0.327029
0.478245
-0.0443903
-0.41655
-0.0536937
0.471806
0.333975
-0.25106
-0.365872
0.16784
0.505182
0.108443
-0.390284
-0.194143
0.365227
0.36657
-0.166022
-0.329546
0.103193
0.413816
0.317345
0.254917
0.276108
0.0792219
-0.0874554
0.157166
0.47082
0.405328
0.276771
0.447496
0.506077
0.114548
-0.174923
0.123825
0.513986
0.443503
0.275753
0.440584
0.52297
0.138012
-0.175865
0.106108
0.513468
0.459647
0.263754
0.394282
0.526221
0.23043
-0.144852
-0.0582337
0.343459
0.519148
-0.115485
-0.0150266
0.307999
0.565437
0.485888
0.139414
0.0116617
0.326009
0.606793
0.395973
0.0180618
0.0789212
0.486373
0.592654
0.228177
-0.0313785
0.221955
0.588488
0.492338
0.0848651
0.00704723
0.382215
0.616688
0.333671
-0.0172371
0.126484
0.520742
0.515695
0.149871
0.0506735
0.300754
0.363943
0.184979
0.231237
0.457903
0.478976
0.424889
0.530583
0.459517
-0.00606246
-0.286342
0.0687805
0.529885
0.52993
0.402655
0.535557
0.51859
0.0371103
-0.300998
0.0317347
0.517735
0.538389
0.400965
0.526264
0.529231
0.0620326
-0.304909
-0.0116836
0.492664
0.559123
0.363759
0.372983
0.495773
0.395331
0.154719
0.369739
0.497247
0.472582
0.479445
0.527564
0.529118
0.505402
0.508968
0.526102
0.528384
0.520238
0.514939
0.515911
0.521735
0.525663
0.520756
0.514057
0.517011
0.524053
0.52363
0.520385
0.520554
0.515306
0.510103
0.522564
0.526305
0.48994
0.48099
0.549362
0.532366
0.303969
0.152289
0.35479
0.587486
0.511828
0.421593
0.553123
0.483559
-0.0138722
-0.312382
0.0522533
0.531559
0.545375
0.425587
0.554705
0.519396
0.0171079
-0.327512
0.0143473
0.515116
0.55111
0.426318
0.548456
0.526317
0.0380163
-0.316457
-0.00224376
0.482557
0.526324
0.392252
0.489082
0.5685
0.347681
0.371014
0.550946
0.337831
-0.0456091
0.0258353
0.462962
0.58821
0.223852
-0.0486952
0.195229
0.574106
0.496652
0.081357
-0.0230492
0.349162
0.614119
0.353022
-0.0236655
0.0781078
0.495685
0.569058
0.187052
-0.0460448
0.227173
0.571589
0.459649
0.0696191
-0.0225191
0.301313
0.561715
0.383046
0.0361179
0.0657914
0.434205
0.501236
0.0898296
-0.143475
0.186934
0.526276
0.401424
0.23804
0.428411
0.515203
0.137358
-0.143476
0.15419
0.519721
0.417389
0.240446
0.418731
0.518114
0.152164
-0.137962
0.144529
0.508016
0.417209
0.253821
0.424018
0.490595
0.126583
-0.102695
0.193928
0.467858
0.30026
0.330043
0.539236
0.194688
-0.34454
-0.260764
0.3173
0.478073
-0.0296502
-0.411473
-0.0718716
0.461479
0.356153
-0.226357
-0.374376
0.146949
0.518526
0.152907
-0.374592
-0.231602
0.354309
0.457549
-0.0802544
-0.40993
-0.0226259
0.469325
0.314385
-0.232462
-0.352372
0.0977416
0.436049
0.213538
-0.135141
0.00870176
0.448713
0.437713
-0.115282
-0.414242
0.00097785
0.537275
0.596997
0.496513
0.602079
0.508167
-0.0495586
-0.408058
-0.0345744
0.520245
0.608694
0.510792
0.610218
0.519917
-0.0342838
-0.401803
-0.0446918
0.500644
0.59935
0.525303
0.622424
0.493121
-0.0482489
-0.308806
0.0702745
0.401994
0.242312
0.204448
0.53748
0.392407
0.0283434
0.083796
0.482056
0.580687
0.218475
-0.0427084
0.201045
0.574395
0.499422
0.0914006
-0.0118556
0.354759
0.616083
0.358305
-0.0129731
0.0889926
0.502031
0.574056
0.196874
-0.0328159
0.237085
0.579285
0.477593
0.107574
0.0255986
0.33446
0.570863
0.395726
0.081579
0.105204
0.423207
0.519521
0.220627
0.0293687
0.285522
0.508747
0.276602
0.055249
0.289456
0.514332
0.277933
0.0479959
0.283346
0.517815
0.288824
0.0581775
0.287508
0.516441
0.284211
0.0515423
0.279469
0.511547
0.294802
0.0799063
0.294362
0.483342
0.266762
0.123049
0.36474
0.477409
0.218857
0.162977
0.432389
0.537592
0.513799
0.516944
0.533885
0.514263
0.498846
0.51522
0.526894
0.517925
0.512051
0.517745
0.521803
0.520306
0.51877
0.518375
0.519228
0.521185
0.51914
0.514374
0.51898
0.528532
0.519734
0.501167
0.512996
0.542827
0.532793
0.509389
0.540723
0.542893
0.396108
0.242862
0.320377
0.519004
0.553914
0.517551
0.597843
0.478969
-0.0494245
-0.383829
-0.0202591
0.51962
0.606335
0.510473
0.607856
0.515185
-0.0388524
-0.405134
-0.042318
0.51349
0.608656
0.510131
0.606178
0.52348
-0.0166498
-0.388108
-0.0571307
0.477614
0.59978
0.528512
0.590048
0.540678
0.272171
0.201531
0.146256
0.295098
0.523616
0.477889
0.136866
-0.000185722
0.318203
0.606433
0.389664
0.00129878
0.063073
0.479701
0.589353
0.219506
-0.0440654
0.213569
0.586121
0.487325
0.0699378
-0.0126158
0.370843
0.617155
0.332399
-0.0384372
0.0909521
0.50739
0.541914
0.168608
0.0154367
0.277292
0.456361
0.311964
0.201616
0.298095
0.345905
0.331445
0.454081
0.472226
0.127355
-0.119646
0.16322
0.512045
0.419064
0.255493
0.43052
0.516959
0.141907
-0.150179
0.139196
0.517853
0.432329
0.251726
0.417675
0.52096
0.162185
-0.150773
0.103646
0.503593
0.481455
0.275058
0.315248
0.455958
0.41532
0.245209
-0.0177751
0.0754956
0.374756
0.321798
-0.149544
-0.33813
0.107057
0.503225
0.193261
-0.350425
-0.259423
0.327444
0.478246
-0.0473567
-0.419528
-0.0523994
0.475509
0.334145
-0.255159
-0.367957
0.172244
0.513409
0.115414
-0.391021
-0.2038
0.366187
0.400193
-0.133393
-0.36334
0.03502
0.431558
0.404542
0.239417
0.128546
-0.0645397
-0.176779
0.100673
0.485937
0.526687
0.443498
0.555163
0.496982
0.00503509
-0.315886
0.0318222
0.52079
0.546646
0.421131
0.545815
0.524705
0.0349
-0.32127
0.00327058
0.509746
0.557299
0.411808
0.510836
0.541757
0.141792
-0.2596
-0.122312
0.336499
0.565703
0.217529
0.163516
0.28626
0.488199
0.460088
0.147513
0.0135112
0.319544
0.599672
0.381182
-0.00658345
0.0587991
0.478944
0.585321
0.208015
-0.0571386
0.206431
0.583144
0.482381
0.064271
-0.0138904
0.370533
0.6109
0.327228
-0.0269962
0.11395
0.515776
0.526064
0.143673
-0.0101972
0.255405
0.490506
0.474189
0.408893
0.292318
0.00185984
-0.164064
0.117493
0.499618
0.520912
0.428956
0.547417
0.498844
0.0128857
-0.305162
0.0401842
0.520895
0.538035
0.409088
0.537121
0.523805
0.041676
-0.31133
0.00990072
0.508415
0.550254
0.40811
0.512515
0.53521
0.122018
-0.264984
-0.09144
0.361321
0.542902
0.0904917
0.421868
0.560883
0.506479
0.491961
0.526073
0.525234
0.512449
0.523713
0.529702
0.515498
0.510715
0.52369
0.529085
0.519051
0.511975
0.517317
0.524828
0.524382
0.518196
0.515543
0.521211
0.525295
0.517047
0.510181
0.520307
0.521341
0.490575
0.484254
0.532401
0.499948
0.31723
0.236915
0.425241
0.568363
0.426541
0.316363
0.472697
0.496811
0.115299
-0.143624
0.157479
0.521345
0.431998
0.270675
0.443268
0.517701
0.129913
-0.166396
0.127885
0.516761
0.441502
0.265719
0.427454
0.518449
0.150327
-0.154894
0.111151
0.493004
0.4392
0.257195
0.365337
0.46519
0.260653
0.0399269
0.490078
0.452978
0.0754251
0.0731757
0.459175
0.582488
0.23953
-0.0168767
0.222346
0.583103
0.499897
0.0991402
0.00590232
0.368442
0.619011
0.361084
-0.00275055
0.099164
0.505195
0.574154
0.198263
-0.0326457
0.235402
0.57504
0.456127
0.0575514
-0.0271046
0.321911
0.582855
0.330805
-0.141294
-0.187966
0.25997
0.588012
0.497931
0.420621
0.579174
0.49162
-0.0570292
-0.389921
-0.00739053
0.531568
0.602999
0.503194
0.605958
0.51605
-0.0356715
-0.398509
-0.0362983
0.514062
0.604233
0.505313
0.604286
0.522033
-0.0202888
-0.38595
-0.0454469
0.47524
0.562682
0.4918
0.594531
0.48498
-0.00644286
0.261022
0.529464
0.251751
-0.293727
-0.25124
0.30842
0.469942
-0.0342304
-0.405607
-0.0566415
0.467735
0.346701
-0.23335
-0.366433
0.15716
0.516528
0.145296
-0.375267
-0.22857
0.351608
0.450674
-0.0841956
-0.412509
-0.029911
0.457043
0.29766
-0.251883
-0.365032
0.0995331
0.438835
0.173057
-0.269171
-0.205675
0.279428
0.45578
0.121766
-0.0582819
0.261802
0.507125
0.269533
0.0589151
0.303799
0.514828
0.256926
0.0244248
0.271157
0.51692
0.298853
0.0761357
0.302291
0.517497
0.271122
0.0338131
0.269327
0.512884
0.299116
0.0810803
0.299204
0.492117
0.253206
0.0708773
0.316358
0.447121
0.109863
0.487231
0.613876
0.355644
-0.0473027
0.0294117
0.472906
0.57993
0.191437
-0.0766591
0.189795
0.573253
0.481822
0.062271
-0.0305636
0.348644
0.607254
0.340647
-0.032074
0.0735941
0.489168
0.562284
0.185311
-0.0469368
0.218966
0.561389
0.465572
0.102561
0.0173703
0.303748
0.526329
0.397575
0.175659
0.256371
0.536409
0.462127
-0.0714898
-0.354784
0.0393247
0.537726
0.58323
0.491594
0.602121
0.501778
-0.0597618
-0.411269
-0.0316732
0.520659
0.605841
0.508631
0.609999
0.520147
-0.0364444
-0.407236
-0.0480591
0.505005
0.603288
0.514958
0.610884
0.510918
-0.0251996
-0.350235
-0.00116745
0.451504
0.448895
0.288859
0.459646
0.514329
0.444018
0.456042
0.535815
0.543186
0.49333
0.483043
0.515884
0.53432
0.522394
0.506768
0.507664
0.521288
0.529989
0.523611
0.512635
0.512778
0.521685
0.525808
0.524818
0.522079
0.51088
0.501483
0.522291
0.554241
0.532186
0.473535
0.47926
0.538916
0.528294
0.482965
0.532795
0.497716
0.189722
-0.0033893
0.259475
0.537431
0.40101
0.238221
0.423589
0.513593
0.149499
-0.119615
0.176493
0.527887
0.408484
0.221132
0.403526
0.518903
0.165205
-0.126612
0.148658
0.511894
0.418671
0.236029
0.398898
0.50649
0.174401
-0.114286
0.118307
0.494201
0.527186
-0.113606
0.0835016
0.404291
0.578007
0.444277
0.131773
0.0534459
0.358728
0.603328
0.3879
0.03295
0.104195
0.497238
0.587976
0.22854
-0.0151229
0.239856
0.589923
0.482263
0.0828894
0.0129961
0.378687
0.602778
0.325437
-0.0248533
0.0971687
0.487411
0.516551
0.158877
0.00771275
0.237528
0.350463
0.155874
0.10733
0.343521
0.468015
0.454129
0.545271
0.474868
0.00813738
-0.296923
0.043677
0.523433
0.549629
0.431928
0.559503
0.527444
0.023772
-0.331782
0.00504161
0.515263
0.5608
0.432537
0.546148
0.527018
0.0465879
-0.319415
-0.0214713
0.483958
0.561902
0.407748
0.442478
0.509101
0.327039
-0.11295
-0.0335286
0.269879
0.48086
0.27797
-0.186993
-0.292262
0.162523
0.506632
0.176848
-0.338615
-0.22783
0.340905
0.466919
-0.053515
-0.404787
-0.0408039
0.461616
0.31365
-0.252879
-0.359441
0.149058
0.471111
0.102447
-0.376172
-0.226125
0.283801
0.329585
-0.115268
-0.284707
0.0239579
0.170861
-0.075967
-0.132458
0.212107
0.438345
0.409359
0.460377
0.428076
0.0206051
-0.276773
0.0418594
0.507003
0.517426
0.3762
0.502883
0.510885
0.0559317
-0.28373
0.0329873
0.511241
0.531583
0.391812
0.514525
0.527053
0.0793806
-0.283728
-0.00966464
0.481108
0.565466
0.409786
0.418929
0.45937
0.262663
0.256747
0.237458
0.364974
0.485866
0.381764
0.0970188
0.0322349
0.348495
0.589736
0.350285
-0.0227692
0.0588133
0.472712
0.565977
0.191871
-0.0630172
0.194596
0.558943
0.466811
0.0677488
-0.0212494
0.330576
0.575436
0.33694
-0.00344007
0.0849258
0.435419
0.465407
0.156933
0.0684477
0.314949
0.403281
0.202986
0.169661
0.366914
0.31787
0.0795053
0.186454
0.484847
0.444422
0.279657
0.411413
0.491623
0.132726
-0.168819
0.1046
0.501854
0.455034
0.290875
0.440267
0.511504
0.129035
-0.17845
0.102024
0.506669
0.462326
0.279373
0.402543
0.504799
0.21017
-0.0812112
0.0788044
0.398958
0.437861
0.386423
0.456124
0.452905
0.414272
0.452708
0.513941
0.518707
0.507995
0.52259
0.525062
0.502046
0.497352
0.522861
0.539128
0.525518
0.50392
0.50307
0.527567
0.549165
0.534412
0.497288
0.498865
0.54616
0.556484
0.504721
0.488006
0.538308
0.529041
0.437769
0.441803
0.543271
0.519921
0.389862
0.423785
0.529314
0.320724
-0.0133995
0.102982
0.515251
0.62883
0.531516
0.577597
0.495065
0.0154203
-0.318018
0.00579859
0.516017
0.598178
0.50077
0.59597
0.517308
-0.0125604
-0.376389
-0.0399889
0.494731
0.590497
0.487158
0.568256
0.508005
0.0432425
-0.283948
-0.0230062
0.398899
0.486471
0.146931
0.414996
0.353894
0.108516
0.179613
0.507503
0.560612
0.232605
0.0304296
0.273131
0.58984
0.490082
0.125029
0.0611265
0.398172
0.602741
0.347442
0.0337267
0.149024
0.493735
0.514307
0.195315
0.0439886
0.248729
0.445618
0.364682
0.191162
0.144715
0.190339
0.245773
0.2625
0.179939
0.0715606
0.146652
0.346914
0.344899
0.176038
0.205975
0.346607
0.247518
0.116433
0.29339
0.478171
0.309762
0.140543
0.345791
0.514363
0.252104
0.0230239
0.265403
0.517121
0.316834
0.0982934
0.306426
0.507994
0.268907
0.0372705
0.25529
0.482054
0.288876
0.0965708
0.281989
0.431737
0.231291
0.0415074
0.402473
0.30378
-0.0790125
-0.0548448
0.352608
0.427483
-0.0229226
-0.317539
0.0144308
0.466338
0.329155
-0.197645
-0.304761
0.166318
0.469933
0.126098
-0.328073
-0.200829
0.27591
0.34717
-0.0647468
-0.302972
-0.0683225
0.204664
0.140777
-0.0570341
-0.104515
-0.049857
0.00201627
0.0442521
0.0117626
-0.116272
-0.123736
0.1155
0.361066
0.409866
0.349518
0.181575
-0.138488
-0.277262
0.0425642
0.453556
0.518591
0.465944
0.582821
0.488346
-0.0562662
-0.400996
-0.031813
0.50862
0.587759
0.484026
0.585128
0.519262
0.0046724
-0.34476
-0.0177536
0.472131
0.539679
0.45422
0.531839
0.438806
0.0274037
0.262824
0.529329
0.430703
0.106812
0.109572
0.42859
0.511621
0.197109
-0.0209256
0.209965
0.538317
0.453796
0.0804341
-0.0108135
0.317809
0.557576
0.340745
0.0079795
0.0656838
0.40444
0.496597
0.233022
0.0507191
0.188256
0.371859
0.343297
0.237143
0.227324
0.247978
0.255848
0.312353
0.352709
0.259478
0.165193
0.257874
0.437983
0.51813
0.48071
0.313261
0.041208
-0.0352915
0.251253
0.503236
0.365745
0.203357
0.393908
0.50492
0.153524
-0.122197
0.163486
0.516031
0.397367
0.193926
0.364909
0.505019
0.198541
-0.0744967
0.164351
0.486133
0.417308
0.272111
0.377744
0.417313
0.176768
0.3884
0.491528
0.475136
0.369733
0.375874
0.481779
0.529938
0.491455
0.459758
0.482257
0.524969
0.539133
0.509675
0.474698
0.494137
0.557185
0.569115
0.500667
0.462791
0.530287
0.588843
0.527888
0.458952
0.510812
0.585724
0.534918
0.448198
0.479833
0.559372
0.552825
0.491179
0.483527
0.528856
0.560312
0.511232
0.379931
0.319194
0.432026
0.5188
0.402343
0.33588
0.520312
0.565837
0.150971
-0.199382
0.0791701
0.536714
0.548991
0.404187
0.520723
0.530111
0.0856844
-0.269777
0.0104528
0.482954
0.538848
0.414596
0.491056
0.482376
0.144818
-0.0963239
0.0992576
0.399244
0.440358
0.20776
0.21851
0.315809
0.413512
0.398082
0.257437
0.2114
0.390409
0.534619
0.380068
0.15
0.224827
0.491843
0.513319
0.257588
0.135751
0.30224
0.446448
0.361803
0.237676
0.231303
0.240179
0.229878
0.307576
0.399175
0.286453
0.0790685
0.121896
0.383553
0.451427
0.188095
-0.00747749
0.187463
0.518182
0.48561
0.0814339
-0.123854
0.167113
0.476952
0.345074
0.12724
0.295672
0.490846
0.190338
-0.194281
0.00135865
0.454972
0.516473
0.37343
0.452897
0.487366
0.137426
-0.167081
0.0656151
0.471063
0.521215
0.416113
0.469001
0.435802
0.138343
-0.0559436
0.125437
0.411777
0.477915
0.0879916
0.0992023
0.228469
0.385541
0.349209
0.0838269
-0.0484396
0.183364
0.409857
0.215964
-0.125924
-0.0684651
0.289517
0.35617
0.0269188
-0.180934
-0.0119633
0.189041
0.139041
0.0118814
-0.0273473
-0.0751082
-0.107136
0.0472004
0.24042
0.104477
-0.228648
-0.213012
0.191536
0.361694
-0.00750499
-0.361055
-0.132852
0.374957
0.420119
-0.0535143
-0.296602
0.071174
0.420797
0.155339
-0.251419
-0.0752553
0.399359
0.441401
0.172658
0.180154
0.335104
0.186498
-0.040333
0.103578
0.408568
0.435205
0.331412
0.413791
0.454236
0.213378
0.0350052
0.192948
0.384904
0.352752
0.287291
0.351444
0.404034
0.330592
0.252944
0.276001
0.320025
0.418882
0.426579
0.243942
0.110785
0.260251
0.464178
0.367093
0.10594
0.106032
0.365403
0.461605
0.260242
0.100832
0.192576
0.329861
0.324839
0.282237
0.274879
0.206142
0.137045
0.258255
0.456604
0.386071
0.10986
0.082181
0.393217
0.564394
0.310017
0.0192769
0.144235
0.503739
0.556652
0.23799
0.0739745
0.341085
0.575579
0.325766
-0.0422105
0.0653069
0.47684
0.614508
0.473786
0.417714
0.387679
0.157267
-0.0462931
0.102745
0.416393
0.527748
0.508234
0.539229
0.42224
0.0800103
-0.0859182
0.127618
0.389203
0.443255
0.408666
0.386006
0.311393
0.219059
0.430675
0.406302
0.325893
0.348715
0.445015
0.448829
0.374133
0.38942
0.500155
0.528482
0.432696
0.38788
0.481087
0.560635
0.506492
0.439386
0.488361
0.559736
0.521296
0.459459
0.501992
0.568373
0.537933
0.468841
0.48534
0.54859
0.554125
0.507649
0.487957
0.517967
0.550117
0.545333
0.507158
0.484098
0.501152
0.517674
0.508133
0.509144
0.520115
0.491429
0.458526
0.477441
0.473019
0.400079
0.39411
0.492537
0.497577
0.360389
0.315116
0.444176
0.486251
0.305601
0.194851
0.327755
0.400496
0.253798
0.183298
0.321087
0.409879
0.324597
0.237966
0.23677
0.23054
0.234624
0.39151
0.316939
0.19387
0.184089
0.311001
0.411449
0.372763
0.286445
0.292492
0.364217
0.376477
0.324871
0.308274
0.318351
0.269484
0.227318
0.31682
0.416999
0.290115
0.063112
0.110745
0.413932
0.514711
0.222195
-0.0285038
0.159583
0.515307
0.493099
0.111421
-0.0482688
0.269041
0.584737
0.408115
0.0153506
0.023475
0.406828
0.549981
0.240236
-0.0185937
0.181921
0.552015
0.551327
0.157282
-0.107282
0.0820416
0.394866
0.397484
0.238081
0.315814
0.541993
0.468296
0.0744903
-0.113742
0.131878
0.40838
0.42643
0.374291
0.39523
0.355608
0.212037
0.136951
0.202255
0.28004
0.312827
0.261134
0.229285
0.186328
0.1851
0.243817
0.300307
0.27548
0.184505
0.131029
0.157435
0.191804
0.185118
0.167472
0.116232
-0.0128707
-0.0807228
0.0807195
0.268222
0.103335
-0.263664
-0.25707
0.186661
0.405269
0.0244041
-0.379758
-0.158488
0.371128
0.388682
-0.145353
-0.402726
0.0254575
0.4781
0.246776
-0.295985
-0.278989
0.275678
0.488388
0.0260634
-0.386753
-0.116316
0.426967
0.44432
-0.0571863
-0.312397
0.0280996
0.401059
0.261725
-0.0734267
-0.00764234
0.359179
0.439092
0.137539
-0.0262439
0.187118
0.418706
0.391888
0.266238
0.240761
0.269949
0.258946
0.256966
0.317294
0.365195
0.338997
0.230272
0.284965
0.33694
0.338569
0.303967
0.297867
0.322587
0.310857
0.25534
0.230039
0.267179
0.321865
0.347474
0.304364
0.188011
0.130706
0.273513
0.459384
0.367079
0.0769967
0.043221
0.368606
0.565008
0.308776
-0.00207825
0.133881
0.518475
0.550647
0.177942
-0.0132921
0.281326
0.599186
0.433647
0.0462481
0.057786
0.456355
0.61348
0.283195
-0.0230621
0.151606
0.521742
0.529107
0.19903
0.0730117
0.35069
0.583606
0.387911
0.0401673
0.0374931
0.350179
0.52608
0.412809
0.296455
0.341269
0.38314
0.287478
0.154395
0.147895
0.266922
0.369222
0.385994
0.364876
0.338391
0.291543
0.289246
0.353926
0.401476
0.369727
0.295058
0.298659
0.391574
0.438278
0.385047
0.35266
0.412965
0.467072
0.449734
0.439365
0.477969
0.495115
0.470781
0.480065
0.527482
0.53968
0.504874
0.488624
0.516252
0.540388
0.531571
0.509947
0.506502
0.521462
0.533496
0.529187
0.517705
0.515234
0.519028
0.519708
0.517057
0.51349
0.510935
0.51717
0.528114
0.521469
0.497195
0.48791
0.507126
0.52585
0.520569
0.502241
0.478239
0.441021
0.411139
0.423983
0.469762
0.497934
0.457791
0.354658
0.275567
0.262441
0.260281
0.265555
0.317535
0.367656
0.346596
0.282353
0.249872
0.259008
0.31707
0.327115
0.313092
0.248269
0.19606
0.246705
0.346941
0.346192
0.256357
0.257676
0.358598
0.333493
0.155503
0.129594
0.360073
0.478704
0.233548
-0.018115
0.145924
0.505845
0.506789
0.132257
-0.0403415
0.265391
0.584778
0.419177
0.0201977
0.00973271
0.40814
0.594207
0.276211
-0.0447345
0.13743
0.53906
0.530943
0.122001
-0.0534386
0.279334
0.607493
0.426781
0.0282861
0.0370411
0.424256
0.562713
0.233244
-0.0362015
0.175901
0.537779
0.519743
0.199966
0.0749074
0.264332
0.388798
0.253024
0.140798
0.25729
0.407621
0.400349
0.307804
0.252944
0.239854
0.232432
0.244492
0.286963
0.277634
0.274437
0.250771
0.202133
0.198078
0.265222
0.299
0.204386
0.0942656
0.157889
0.300312
0.209425
-0.0882129
-0.142302
0.188961
0.375614
0.0297269
-0.366635
-0.172695
0.349799
0.387049
-0.13849
-0.407856
0.0138241
0.479918
0.260993
-0.303161
-0.326326
0.232702
0.497997
0.0515771
-0.4039
-0.149131
0.421522
0.417533
-0.154817
-0.403873
0.0557287
0.502957
0.240974
-0.307652
-0.271168
0.288993
0.482321
0.00757504
-0.38373
-0.0851757
0.44052
0.422556
-0.0401925
-0.209572
0.11487
0.381571
0.265996
0.110481
0.218388
0.397591
0.388544
0.24855
0.179273
0.231676
0.301715
0.318663
0.308101
0.241688
0.275165
0.291042
0.288645
0.316574
0.356579
0.327189
0.223283
0.172909
0.276182
0.409967
0.34945
0.137325
0.104867
0.36022
0.521819
0.289979
-0.00435495
0.118891
0.497302
0.539042
0.168145
-0.0318071
0.26295
0.596989
0.44614
0.0471844
0.0287732
0.422864
0.610637
0.295489
-0.0284471
0.147372
0.548714
0.549301
0.150512
-0.0232553
0.297831
0.605033
0.410084
0.0190936
0.0517349
0.458471
0.601302
0.263944
-0.0230407
0.171902
0.526498
0.4958
0.15566
0.0450116
0.304384
0.516116
0.421283
0.243648
0.2245
0.300115
0.310566
0.24824
0.228864
0.300231
0.370256
0.348427
0.271962
0.270094
0.29754
0.315417
0.335851
0.363772
0.357859
0.315786
0.305289
0.351062
0.394188
0.403559
0.417999
0.448154
0.460121
0.462327
0.486807
0.515746
0.517223
0.503541
0.505948
0.520874
0.526484
0.520337
0.514353
0.51573
0.520911
0.523832
0.521734
0.518055
0.517758
0.521165
0.523034
0.51903
0.513871
0.515524
0.522289
0.525086
0.522336
0.518666
0.51451
0.511232
0.513358
0.51741
0.517353
0.517306
0.517937
0.509693
0.493919
0.48148
0.473914
0.467228
0.456521
0.443803
0.431272
0.387028
0.297885
0.240618
0.268556
0.31482
0.320026
0.316202
0.323641
0.301451
0.245806
0.328408
0.289262
0.265181
0.284671
0.29565
0.24096
0.203309
0.293007
0.393484
0.294286
0.103822
0.154302
0.409647
0.437417
0.13695
-0.0208152
0.254504
0.562631
0.417418
0.0341184
0.0146246
0.401669
0.59773
0.292755
-0.0399472
0.12217
0.529351
0.544588
0.142615
-0.0466767
0.275138
0.605593
0.427036
0.0190348
0.0208696
0.428675
0.602598
0.273362
-0.0374516
0.158953
0.553664
0.528898
0.124028
-0.029585
0.303923
0.600537
0.404424
0.0388293
0.0756337
0.43344
0.543243
0.258365
0.0397713
0.185728
0.401627
0.360685
0.216136
0.237902
0.352828
0.353459
0.25751
0.217125
0.257484
0.293816
0.330241
0.259313
0.231016
0.265274
0.268835
0.182146
0.136362
0.258606
0.365111
0.184943
-0.103941
-0.04298
0.30543
0.332488
-0.11132
-0.364725
0.00626619
0.448281
0.252109
-0.296113
-0.334522
0.213259
0.497949
0.0705935
-0.40147
-0.175099
0.399882
0.42321
-0.143142
-0.411575
0.0403946
0.506582
0.257581
-0.315292
-0.313222
0.259219
0.501463
0.0334704
-0.407864
-0.128471
0.435098
0.402884
-0.172281
-0.392792
0.0777907
0.497452
0.222321
-0.289687
-0.227954
0.294358
0.466715
0.0794738
-0.20968
0.0274489
0.386123
0.391921
0.20672
0.199708
0.332225
0.34491
0.226893
0.176707
0.258776
0.349082
0.267725
0.247663
0.267707
0.323685
0.33767
0.268069
0.220349
0.30098
0.387399
0.281048
0.0988916
0.165078
0.435946
0.473859
0.1654
-0.0178745
0.246385
0.568832
0.435265
0.0437511
0.01221
0.401
0.605738
0.304543
-0.0306018
0.127867
0.534058
0.551492
0.152025
-0.0383342
0.279517
0.60817
0.432423
0.0275319
0.0289421
0.434518
0.60629
0.273209
-0.0429994
0.152239
0.552049
0.530636
0.122126
-0.0354692
0.299264
0.597576
0.397841
0.0239793
0.0575049
0.425858
0.55053
0.272592
0.0536378
0.19817
0.42451
0.399286
0.234416
0.203694
0.303453
0.343181
0.280001
0.238643
0.279038
0.326863
0.235772
0.274725
0.306918
0.331909
0.35271
0.354072
0.333441
0.322837
0.345242
0.37799
0.396246
0.413097
0.444711
0.477229
0.490833
0.490757
0.4967
0.511417
0.519443
0.516819
0.513773
0.515545
0.518749
0.520008
0.519803
0.519112
0.518864
0.519723
0.520912
0.520746
0.519274
0.518495
0.51855
0.517931
0.518287
0.521435
0.523562
0.521007
0.51672
0.515598
0.518049
0.519266
0.515991
0.513516
0.517601
0.522575
0.517194
0.500499
0.485877
0.484392
0.487181
0.47712
0.450444
0.412206
0.36909
0.327253
0.288917
0.267083
0.280397
0.315912
0.336221
0.325921
0.29816
0.269921
0.283063
0.32218
0.292546
0.230456
0.237326
0.320876
0.346629
0.240966
0.158925
0.26791
0.422079
0.33041
0.070142
0.0560047
0.368453
0.541958
0.27973
-0.0243622
0.120724
0.511719
0.54294
0.158029
-0.0423841
0.261306
0.598994
0.442029
0.0356982
0.0184307
0.419343
0.610432
0.291561
-0.0371777
0.139775
0.544561
0.543523
0.140843
-0.030648
0.297661
0.61074
0.418733
0.0248663
0.047685
0.4501
0.601818
0.2712
-0.0177971
0.181141
0.54246
0.503546
0.14842
0.0389964
0.315376
0.522637
0.37217
0.152082
0.185605
0.339977
0.348954
0.250346
0.234205
0.31064
0.349191
0.306651
0.258065
0.329329
0.348813
0.277515
0.164629
0.150395
0.266108
0.325695
0.187558
0.0443623
0.159102
0.355205
0.208537
-0.190627
-0.243599
0.185433
0.431816
0.0558
-0.387981
-0.190582
0.366406
0.416025
-0.128229
-0.414616
0.0134852
0.492267
0.271692
-0.303592
-0.330242
0.235814
0.507602
0.0587485
-0.405379
-0.154845
0.418592
0.415849
-0.159427
-0.40663
0.0603398
0.509983
0.241277
-0.320033
-0.292964
0.276211
0.490897
0.0180937
-0.393588
-0.102495