# vtk DataFile Version 3.0
PFC-RG simulation results
ASCII
DATASET STRUCTURED_POINTS
DIMENSIONS 256 256 1
ORIGIN 0 0 0
SPACING 1 1 1
POINT_DATA 65536
SCALARS psi double
LOOKUP_TABLE default
0.284835
0.285134
0.285318
0.285163
0.284802
0.284617
0.284835
0.285259
0.285449
0.285186
0.284718
0.284509
0.284767
0.285234
0.285459
0.285253
0.284868
0.284701
0.284864
0.285087
0.285059
0.284809
0.284682
0.284948
0.28547
0.285806
0.285618
0.284961
0.284225
0.283829
0.283971
0.284555
0.285272
0.285801
0.286063
0.28625
0.286565
0.286875
0.286707
0.285667
0.283817
0.281725
0.280123
0.279541
0.280246
0.282247
0.285202
0.288412
0.291014
0.292362
0.292253
0.290795
0.288237
0.284951
0.281471
0.278476
0.276621
0.276283
0.277462
0.279912
0.283274
0.287048
0.290539
0.29299
0.293886
0.293135
0.290944
0.287682
0.28384
0.280083
0.277197
0.275816
0.276097
0.277686
0.280081
0.282957
0.286121
0.289218
0.291545
0.292358
0.291384
0.288979
0.285894
0.282936
0.280725
0.27967
0.279987
0.281607
0.28404
0.286373
0.287654
0.287451
0.286119
0.284596
0.283794
0.284069
0.285072
0.286071
0.286459
0.286094
0.285282
0.284536
0.284147
0.284036
0.283966
0.283828
0.283853
0.284294
0.285117
0.285901
0.286065
0.285448
0.284434
0.28362
0.283331
0.283457
0.283894
0.284803
0.286493
0.288939
0.291514
0.29334
0.293882
0.293338
0.292231
0.290931
0.289585
0.288401
0.287865
0.288432
0.290192
0.292684
0.295127
0.296759
0.297038
0.295779
0.293097
0.289487
0.285697
0.282432
0.280121
0.279018
0.279465
0.281619
0.284929
0.288
0.289263
0.288173
0.285702
0.283647
0.283251
0.284333
0.285623
0.285876
0.284805
0.283193
0.282246
0.282731
0.28457
0.286864
0.288396
0.288367
0.286809
0.284586
0.28283
0.282318
0.283071
0.284468
0.28558
0.285684
0.284728
0.283207
0.281959
0.281549
0.281964
0.283025
0.284613
0.286699
0.289008
0.291059
0.292316
0.292368
0.291262
0.289334
0.287046
0.284764
0.282644
0.280799
0.279548
0.279249
0.27983
0.280906
0.2821
0.283302
0.284523
0.285617
0.286297
0.286336
0.285922
0.285487
0.285435
0.285886
0.28661
0.287291
0.287702
0.287689
0.287117
0.286107
0.284949
0.28396
0.283356
0.283143
0.283323
0.283786
0.284355
0.284721
0.284548
0.283861
0.283008
0.282585
0.283067
0.28454
0.286573
0.288239
0.288578
0.287179
0.284604
0.2822
0.28134
0.282553
0.285088
0.287326
0.287842
0.286436
0.284284
0.283009
0.283385
0.284811
0.285987
0.2861
0.28538
0.284641
0.284436
0.284703
0.285046
0.285196
0.285162
0.285068
0.284988
0.284932
0.284912
0.284945
0.285015
0.285068
0.285063
0.285011
0.284981
0.28515
0.285116
0.284876
0.284728
0.284906
0.285254
0.285376
0.285088
0.284661
0.284543
0.284874
0.285338
0.285488
0.285198
0.284764
0.284584
0.284771
0.28508
0.285189
0.285043
0.284903
0.285042
0.285399
0.285569
0.285205
0.284431
0.283812
0.283871
0.284628
0.285611
0.28627
0.286373
0.286056
0.285544
0.284948
0.284236
0.283359
0.282429
0.281763
0.281849
0.283073
0.285373
0.288139
0.290441
0.291456
0.290796
0.288563
0.285272
0.28178
0.279114
0.278161
0.279358
0.282576
0.287233
0.292448
0.29716
0.300301
0.301095
0.299338
0.295457
0.290447
0.285604
0.282142
0.280908
0.28229
0.286142
0.291564
0.297042
0.301078
0.302776
0.301958
0.2989
0.294166
0.288565
0.283128
0.278971
0.276992
0.277551
0.280255
0.284088
0.287829
0.29048
0.291488
0.290735
0.288522
0.285562
0.282859
0.281378
0.281586
0.283119
0.284948
0.286013
0.285865
0.28492
0.284053
0.283912
0.284479
0.285224
0.285646
0.28567
0.285655
0.285963
0.286554
0.286876
0.286302
0.284772
0.282887
0.281528
0.281292
0.282098
0.283471
0.284965
0.286287
0.287268
0.287594
0.286907
0.285186
0.28289
0.280868
0.279916
0.280318
0.281642
0.283222
0.284647
0.285751
0.286484
0.28661
0.285858
0.284343
0.282644
0.281397
0.280752
0.280412
0.280075
0.279897
0.280188
0.280918
0.281838
0.282719
0.283612
0.284752
0.286173
0.287431
0.287764
0.286688
0.284491
0.282377
0.281747
0.283083
0.285504
0.287243
0.287028
0.285161
0.283177
0.282693
0.284156
0.286585
0.288395
0.288432
0.286679
0.284059
0.281903
0.281221
0.282219
0.284222
0.286096
0.286907
0.286374
0.284976
0.28345
0.282419
0.282143
0.282536
0.283452
0.284875
0.286897
0.289429
0.292046
0.294139
0.295417
0.296129
0.296691
0.297249
0.29754
0.297051
0.295296
0.29218
0.288089
0.283711
0.27976
0.27682
0.27539
0.275834
0.27819
0.281947
0.286267
0.290362
0.293683
0.295928
0.297007
0.297126
0.29668
0.296034
0.295217
0.293943
0.291973
0.289412
0.286755
0.284536
0.283065
0.282381
0.282391
0.28298
0.283969
0.285085
0.285984
0.286273
0.285666
0.284248
0.282561
0.281503
0.281862
0.283801
0.286577
0.288774
0.289077
0.287145
0.284032
0.281632
0.281437
0.283437
0.286102
0.287569
0.287039
0.285244
0.283685
0.283404
0.284308
0.285458
0.285946
0.285578
0.284882
0.28452
0.28469
0.285051
0.285185
0.285049
0.28493
0.285013
0.285138
0.285064
0.284841
0.284773
0.284996
0.285261
0.285162
0.285011
0.284771
0.284705
0.284972
0.285352
0.285413
0.285011
0.284522
0.284486
0.284992
0.285546
0.285575
0.285048
0.284496
0.284442
0.284874
0.285314
0.285369
0.285106
0.284901
0.284988
0.285213
0.28522
0.284833
0.284284
0.284063
0.284515
0.28549
0.286386
0.286588
0.285948
0.28489
0.284019
0.283587
0.283396
0.283159
0.282924
0.2831
0.284087
0.28595
0.28828
0.290334
0.291332
0.290707
0.28838
0.284882
0.281142
0.278121
0.276492
0.276529
0.278217
0.28125
0.285009
0.288724
0.291672
0.293301
0.2933
0.291639
0.28859
0.284669
0.280523
0.276821
0.274186
0.273075
0.27369
0.275965
0.27954
0.283796
0.287962
0.291301
0.293298
0.293776
0.292821
0.2906
0.28735
0.283521
0.279848
0.27725
0.276454
0.277627
0.280361
0.28392
0.287453
0.290142
0.291308
0.290609
0.288309
0.285326
0.282925
0.282067
0.282829
0.2844
0.285638
0.285846
0.285147
0.284251
0.283852
0.284142
0.284785
0.285303
0.285454
0.285422
0.285554
0.28595
0.28631
0.28614
0.285343
0.284348
0.283789
0.28406
0.284942
0.285855
0.286348
0.286428
0.286435
0.286372
0.285708
0.283906
0.281203
0.278645
0.277242
0.277184
0.277793
0.278489
0.279372
0.280752
0.282373
0.283273
0.282642
0.280581
0.27802
0.275846
0.274421
0.273909
0.27462
0.276899
0.280449
0.28425
0.287301
0.289271
0.290287
0.290244
0.288784
0.285901
0.282574
0.280507
0.280889
0.283362
0.286185
0.287486
0.286618
0.284578
0.283189
0.283726
0.285921
0.288116
0.288582
0.286764
0.283667
0.281082
0.280351
0.281698
0.284268
0.286776
0.288127
0.287921
0.286555
0.285015
0.284303
0.284826
0.286348
0.288054
0.289094
0.28899
0.287619
0.285302
0.28252
0.279755
0.277403
0.275922
0.275792
0.277076
0.279423
0.282245
0.285041
0.287525
0.289534
0.290882
0.291385
0.29106
0.290055
0.288711
0.287364
0.286147
0.285074
0.284245
0.283898
0.284008
0.284215
0.284019
0.283199
0.282028
0.281021
0.280592
0.28088
0.281872
0.283374
0.285066
0.286516
0.287319
0.287367
0.286801
0.286016
0.285396
0.285265
0.285847
0.286929
0.287941
0.288092
0.28687
0.284448
0.28175
0.280158
0.280738
0.283475
0.286999
0.289286
0.288968
0.286322
0.283142
0.281496
0.282295
0.284707
0.286855
0.287264
0.285943
0.284233
0.283553
0.284197
0.285263
0.285711
0.285368
0.284876
0.284792
0.285003
0.285065
0.284882
0.284794
0.285021
0.2853
0.285234
0.284861
0.284641
0.28486
0.285244
0.285158
0.284886
0.284707
0.28488
0.285255
0.28539
0.285061
0.284579
0.284497
0.284981
0.285565
0.285613
0.285016
0.284355
0.284304
0.284917
0.285571
0.285641
0.285145
0.284667
0.284671
0.285008
0.285145
0.284829
0.284412
0.284474
0.285192
0.28611
0.286514
0.286004
0.284802
0.283584
0.283007
0.283276
0.28411
0.285064
0.285921
0.286764
0.287695
0.288502
0.288608
0.287485
0.285103
0.282004
0.279126
0.277441
0.277621
0.279819
0.283522
0.287647
0.290926
0.292315
0.291315
0.288019
0.282963
0.277091
0.271706
0.268111
0.267144
0.268941
0.273007
0.278337
0.283591
0.287379
0.288637
0.286908
0.282478
0.276472
0.270532
0.266164
0.264282
0.265221
0.268873
0.274623
0.281345
0.287592
0.292001
0.293748
0.292694
0.289404
0.28501
0.280821
0.277954
0.277147
0.278554
0.281631
0.285233
0.288004
0.289006
0.288171
0.286333
0.284734
0.284235
0.2848
0.285629
0.28588
0.285344
0.284561
0.284242
0.284564
0.285043
0.284984
0.284187
0.283197
0.282923
0.283875
0.285667
0.287359
0.288176
0.287997
0.287268
0.286349
0.285199
0.283746
0.282338
0.281834
0.282867
0.285106
0.287485
0.289048
0.289576
0.289382
0.28874
0.28758
0.285908
0.284286
0.283432
0.283682
0.284742
0.286013
0.287137
0.288116
0.289012
0.289636
0.289772
0.289448
0.288987
0.288591
0.288016
0.287068
0.28593
0.284924
0.284081
0.283213
0.282493
0.282627
0.284231
0.286764
0.288527
0.288012
0.285337
0.282495
0.281707
0.283516
0.286481
0.288267
0.287439
0.284455
0.281249
0.279943
0.281368
0.284671
0.287969
0.289616
0.289072
0.286968
0.284537
0.282936
0.282806
0.284014
0.285881
0.287483
0.288152
0.287707
0.286257
0.284073
0.28149
0.278883
0.276584
0.274902
0.273965
0.273613
0.273494
0.273262
0.272956
0.273116
0.274427
0.277155
0.280994
0.285257
0.289162
0.29205
0.293452
0.293123
0.291034
0.287535
0.283368
0.279432
0.276401
0.274488
0.273577
0.273371
0.273554
0.273858
0.274245
0.275007
0.276558
0.279008
0.281933
0.284683
0.286688
0.287691
0.287726
0.286944
0.285612
0.284176
0.283229
0.283327
0.284682
0.286876
0.288912
0.289566
0.288081
0.284803
0.281266
0.279456
0.280552
0.28403
0.287806
0.289534
0.288213
0.28497
0.282248
0.281914
0.28381
0.286083
0.286924
0.286076
0.284714
0.28408
0.284386
0.284978
0.285254
0.285197
0.285096
0.285073
0.285022
0.28489
0.284808
0.284903
0.285099
0.285192
0.285093
0.284922
0.284854
0.284927
0.284976
0.284897
0.284994
0.285214
0.285245
0.284937
0.284585
0.284639
0.285142
0.285592
0.285465
0.284818
0.284283
0.284414
0.285112
0.285718
0.285669
0.285043
0.284454
0.284422
0.284864
0.285229
0.285135
0.284806
0.284815
0.285387
0.286046
0.28602
0.285036
0.283673
0.282895
0.283258
0.284516
0.285914
0.286848
0.287204
0.287242
0.287196
0.286937
0.286055
0.284229
0.281619
0.278995
0.277443
0.277819
0.280298
0.28429
0.28873
0.292487
0.294651
0.294702
0.292686
0.289158
0.284945
0.280924
0.277865
0.276338
0.276676
0.278863
0.282468
0.286809
0.291201
0.295058
0.297849
0.299087
0.29845
0.29596
0.292058
0.28743
0.28279
0.278787
0.275992
0.274835
0.275521
0.277991
0.2819
0.286526
0.290821
0.293749
0.294612
0.293211
0.289913
0.285557
0.281262
0.278215
0.277324
0.2788
0.281955
0.285377
0.287574
0.287831
0.286589
0.285079
0.284443
0.284908
0.285771
0.286137
0.285685
0.284862
0.284398
0.284571
0.285026
0.285119
0.28456
0.283756
0.283457
0.284101
0.285286
0.286147
0.286138
0.285427
0.284667
0.284248
0.284018
0.283668
0.283194
0.283135
0.284125
0.286253
0.288841
0.290939
0.291991
0.29208
0.291741
0.291222
0.290292
0.288791
0.287132
0.286237
0.286786
0.288663
0.291082
0.293262
0.294736
0.295223
0.294524
0.292499
0.289401
0.285932
0.282882
0.280803
0.279877
0.280073
0.281312
0.283538
0.286372
0.28881
0.289551
0.287895
0.284634
0.281931
0.281781
0.284236
0.28715
0.287882
0.285611
0.282063
0.279976
0.281001
0.28459
0.288587
0.29077
0.290095
0.287154
0.283599
0.281155
0.280676
0.281901
0.283794
0.285167
0.28527
0.283966
0.28192
0.280221
0.279834
0.281237
0.284112
0.287747
0.291354
0.294245
0.295921
0.29608
0.294734
0.292116
0.288709
0.285167
0.282093
0.27978
0.278266
0.277596
0.277777
0.278733
0.280131
0.281593
0.282928
0.284081
0.284999
0.285562
0.285859
0.286157
0.286821
0.288078
0.289697
0.291036
0.291448
0.290726
0.28902
0.28677
0.284488
0.282664
0.281777
0.281986
0.283013
0.284138
0.284717
0.284396
0.283154
0.281553
0.280512
0.281001
0.283397
0.286996
0.290164
0.291094
0.288947
0.284609
0.280491
0.279115
0.281323
0.285507
0.288712
0.288887
0.286394
0.283489
0.282328
0.283326
0.285201
0.286348
0.286142
0.285164
0.284418
0.284413
0.284874
0.285205
0.285149
0.28496
0.284972
0.285148
0.285159
0.284892
0.284668
0.28483
0.285244
0.285402
0.285073
0.284638
0.28483
0.284987
0.285259
0.285318
0.284971
0.284533
0.284562
0.285159
0.285707
0.285519
0.284688
0.284084
0.284407
0.285378
0.286007
0.285657
0.284702
0.284085
0.284327
0.285067
0.285543
0.285406
0.285
0.2849
0.285256
0.285599
0.285313
0.284321
0.283309
0.283214
0.284383
0.286191
0.287501
0.287578
0.286545
0.285096
0.283811
0.282791
0.281889
0.281126
0.280894
0.281737
0.283943
0.287246
0.290772
0.293292
0.293735
0.291683
0.287624
0.282808
0.278758
0.276719
0.27736
0.280736
0.28631
0.292931
0.299021
0.30306
0.304119
0.302058
0.297391
0.291217
0.285114
0.280768
0.27941
0.281462
0.286481
0.2932
0.299894
0.304956
0.307284
0.306321
0.302078
0.295339
0.287614
0.280706
0.276133
0.274701
0.276408
0.280527
0.285768
0.290566
0.293506
0.293757
0.29138
0.28739
0.283416
0.280991
0.28079
0.282301
0.284188
0.285214
0.285043
0.284327
0.28407
0.284714
0.285766
0.286268
0.285729
0.284651
0.284096
0.284735
0.286163
0.287234
0.287014
0.28555
0.283799
0.282704
0.28246
0.282647
0.282871
0.28334
0.284573
0.286516
0.288232
0.28849
0.286901
0.284378
0.282314
0.281371
0.28109
0.280834
0.280769
0.281686
0.283781
0.285943
0.286786
0.286018
0.284633
0.283669
0.283127
0.282335
0.281084
0.280086
0.280036
0.280768
0.281481
0.281741
0.28202
0.282883
0.284187
0.285261
0.285814
0.286245
0.28688
0.287275
0.286471
0.284257
0.281851
0.281139
0.28308
0.286537
0.288945
0.288302
0.284822
0.281124
0.280233
0.283125
0.28789
0.291165
0.290773
0.287069
0.282368
0.279166
0.278751
0.280831
0.284026
0.286711
0.287726
0.286897
0.284873
0.28273
0.281471
0.281711
0.283546
0.286486
0.289761
0.292655
0.294736
0.295863
0.296162
0.296001
0.295838
0.295958
0.296247
0.296267
0.295422
0.293301
0.289929
0.285881
0.28207
0.279284
0.27795
0.278196
0.280021
0.283155
0.286948
0.290535
0.293228
0.294807
0.295471
0.295665
0.295779
0.296002
0.296211
0.295962
0.294766
0.292425
0.28923
0.285885
0.283248
0.281902
0.281957
0.283164
0.284987
0.28668
0.287405
0.286512
0.284021
0.280901
0.278735
0.279026
0.282226
0.287096
0.291055
0.291652
0.288378
0.283294
0.279717
0.279839
0.283167
0.287026
0.288687
0.287379
0.284647
0.282857
0.283182
0.284815
0.286021
0.285897
0.285044
0.284589
0.284846
0.285174
0.285018
0.284666
0.284752
0.285275
0.285544
0.285133
0.284522
0.28449
0.285083
0.285543
0.285305
0.284715
0.284879
0.285026
0.285182
0.285072
0.284765
0.284679
0.285047
0.285508
0.285445
0.284772
0.284185
0.284433
0.285393
0.286076
0.285679
0.284529
0.283788
0.284212
0.285341
0.286031
0.285703
0.284883
0.284503
0.284832
0.285248
0.28503
0.284232
0.283698
0.284225
0.28574
0.287257
0.287637
0.28649
0.28446
0.282658
0.281831
0.281917
0.28237
0.282892
0.283755
0.285486
0.288206
0.291243
0.293354
0.293388
0.290895
0.286349
0.280949
0.27616
0.273276
0.273032
0.275354
0.279498
0.284415
0.289023
0.292356
0.293689
0.292664
0.289463
0.284774
0.279445
0.274197
0.269605
0.266249
0.264712
0.265354
0.2681
0.272455
0.277761
0.283394
0.288698
0.292908
0.295221
0.295084
0.292461
0.287891
0.282412
0.277356
0.273968
0.273089
0.274997
0.279269
0.284791
0.289994
0.29326
0.293565
0.291065
0.287111
0.283636
0.282108
0.28266
0.28416
0.285136
0.284863
0.283875
0.283365
0.284014
0.28536
0.286245
0.285938
0.284873
0.284174
0.284609
0.285853
0.286768
0.286489
0.285195
0.283977
0.283751
0.284414
0.285129
0.285262
0.285122
0.285498
0.286565
0.287509
0.287216
0.285469
0.283141
0.281258
0.280052
0.27913
0.278371
0.278166
0.278947
0.280518
0.282118
0.283178
0.283613
0.28344
0.282354
0.280147
0.277396
0.275389
0.27509
0.276315
0.278307
0.280649
0.283434
0.286549
0.28913
0.29017
0.289519
0.287999
0.286334
0.284459
0.282223
0.280469
0.280812
0.283797
0.287634
0.289353
0.287457
0.283461
0.280764
0.281792
0.285976
0.290222
0.291209
0.287902
0.282264
0.277754
0.276958
0.279974
0.284781
0.288808
0.290493
0.289735
0.287548
0.285401
0.284494
0.285387
0.287582
0.289834
0.290791
0.289539
0.286124
0.28138
0.276567
0.272812
0.270778
0.270725
0.272514
0.275779
0.279925
0.28421
0.287953
0.290764
0.292524
0.293242
0.293093
0.292253
0.290952
0.289447
0.287972
0.286696
0.285666
0.284878
0.284143
0.283221
0.28185
0.279897
0.277677
0.275936
0.275454
0.276581
0.279171
0.282503
0.28568
0.287954
0.288796
0.288186
0.28667
0.285296
0.284965
0.286014
0.288107
0.290167
0.290855
0.289104
0.284946
0.279962
0.276746
0.277424
0.281995
0.287973
0.291759
0.291066
0.286603
0.281655
0.279685
0.281694
0.285556
0.288005
0.287485
0.285215
0.283573
0.283698
0.284777
0.28544
0.28531
0.285017
0.285066
0.285222
0.285057
0.284683
0.284602
0.284979
0.285384
0.285347
0.284945
0.284663
0.284779
0.285085
0.28522
0.285105
0.285037
0.285013
0.284902
0.28476
0.284841
0.285211
0.285489
0.285242
0.284595
0.28424
0.284686
0.28559
0.286014
0.285412
0.284288
0.283754
0.284397
0.285639
0.286293
0.285762
0.284631
0.284016
0.28438
0.285102
0.285259
0.284731
0.284367
0.284997
0.286383
0.287288
0.286625
0.284522
0.28228
0.281311
0.282131
0.284133
0.286256
0.287801
0.288688
0.289176
0.289322
0.288708
0.286733
0.283247
0.278968
0.275361
0.273959
0.27556
0.279832
0.285424
0.290519
0.293553
0.293564
0.290274
0.284211
0.276725
0.269631
0.264682
0.263015
0.264905
0.269846
0.276561
0.283177
0.287764
0.289001
0.286501
0.280784
0.273206
0.265637
0.259936
0.257541
0.259224
0.264886
0.273336
0.282533
0.290323
0.295096
0.29609
0.293466
0.288206
0.281912
0.276548
0.273883
0.274732
0.278558
0.283607
0.287707
0.289413
0.288698
0.286821
0.285434
0.285364
0.286101
0.286423
0.285544
0.283917
0.28287
0.283367
0.28505
0.286476
0.286385
0.284811
0.283075
0.282575
0.283615
0.285274
0.286364
0.286619
0.286703
0.287159
0.287632
0.28711
0.285128
0.282607
0.281179
0.281771
0.283817
0.28592
0.287239
0.287994
0.2888
0.289629
0.289743
0.288511
0.286253
0.284237
0.283549
0.284234
0.28546
0.286441
0.287078
0.287741
0.28866
0.289528
0.289856
0.289419
0.288514
0.287728
0.287261
0.286812
0.286013
0.284909
0.283934
0.28345
0.283395
0.283423
0.283629
0.284627
0.286661
0.28862
0.288441
0.285317
0.281214
0.279642
0.282489
0.287798
0.291206
0.28965
0.283943
0.2781
0.276102
0.279183
0.285307
0.290901
0.293167
0.291533
0.287519
0.283469
0.28125
0.281429
0.283477
0.286187
0.288153
0.288275
0.286178
0.282415
0.278112
0.274495
0.272377
0.271881
0.272541
0.273622
0.274479
0.274796
0.274612
0.274279
0.274467
0.275797
0.278427
0.281914
0.285416
0.288134
0.289549
0.289474
0.287956
0.285334
0.282188
0.279223
0.277053
0.275909
0.275529
0.275301
0.274705
0.273603
0.272383
0.271804
0.272556
0.27497
0.27876
0.282989
0.28642
0.288106
0.287787
0.285902
0.283432
0.281573
0.281413
0.283556
0.287534
0.291558
0.29326
0.29104
0.285373
0.279031
0.275692
0.277576
0.283585
0.289703
0.291825
0.288954
0.283896
0.280739
0.281397
0.284414
0.286854
0.287061
0.285665
0.284349
0.284099
0.284634
0.285132
0.285178
0.285001
0.284994
0.285188
0.285249
0.284959
0.284588
0.284623
0.285122
0.285539
0.285345
0.284727
0.28442
0.284806
0.285415
0.285111
0.285055
0.284814
0.284713
0.285041
0.285487
0.285396
0.284685
0.284159
0.284597
0.285672
0.286158
0.285347
0.283997
0.283575
0.284622
0.286112
0.286546
0.285516
0.28407
0.283567
0.284322
0.28542
0.285779
0.28528
0.28479
0.28512
0.286026
0.286353
0.285222
0.28309
0.281558
0.282008
0.284384
0.287272
0.289096
0.28929
0.288393
0.287212
0.285986
0.284258
0.281569
0.278215
0.275351
0.274476
0.276593
0.281563
0.288083
0.294197
0.298098
0.298812
0.29636
0.291574
0.285761
0.280321
0.276491
0.275171
0.276687
0.280655
0.286154
0.292166
0.297918
0.302855
0.306397
0.307956
0.307205
0.304243
0.299492
0.29346
0.286721
0.280104
0.274755
0.271838
0.27207
0.275428
0.281109
0.287762
0.293826
0.297805
0.298585
0.295813
0.290124
0.283161
0.277205
0.274299
0.275266
0.279196
0.28385
0.286936
0.287449
0.2862
0.285035
0.285248
0.286557
0.287485
0.28682
0.284818
0.283042
0.282955
0.284522
0.286185
0.286361
0.284905
0.283242
0.282955
0.284232
0.285823
0.286304
0.28554
0.284689
0.284751
0.285462
0.285562
0.284319
0.282533
0.281812
0.283001
0.285297
0.287201
0.288121
0.288797
0.29009
0.291606
0.292043
0.290724
0.288542
0.287025
0.286636
0.286621
0.286419
0.286758
0.288662
0.291766
0.294252
0.294585
0.293009
0.290848
0.288856
0.286656
0.283842
0.281106
0.279771
0.280394
0.282152
0.283894
0.285355
0.286942
0.288588
0.289176
0.287499
0.283857
0.280553
0.280378
0.284015
0.288789
0.290481
0.287008
0.280591
0.276278
0.277763
0.284368
0.291725
0.295199
0.29309
0.287169
0.280928
0.277233
0.277087
0.279587
0.282787
0.284845
0.284676
0.282528
0.279733
0.278007
0.27878
0.282425
0.288142
0.294306
0.299315
0.302109
0.302282
0.300142
0.296259
0.291312
0.286099
0.28143
0.277886
0.275698
0.274794
0.274874
0.275698
0.277016
0.278567
0.280135
0.281585
0.282874
0.284006
0.285235
0.286892
0.289206
0.292094
0.294983
0.296996
0.297292
0.295453
0.291722
0.287148
0.283061
0.280544
0.280102
0.281391
0.283429
0.28482
0.284493
0.282257
0.278992
0.276523
0.276722
0.280545
0.287023
0.293199
0.295476
0.291974
0.284422
0.277514
0.275729
0.279884
0.286504
0.290685
0.289951
0.285855
0.28218
0.281592
0.283726
0.286098
0.286678
0.285589
0.284474
0.284475
0.285125
0.285278
0.284727
0.284402
0.284961
0.28576
0.285679
0.2847
0.284037
0.284559
0.28561
0.285857
0.285032
0.284248
0.284486
0.285334
0.285051
0.28516
0.285021
0.284934
0.285085
0.285186
0.284911
0.284528
0.284679
0.285429
0.28592
0.285341
0.284109
0.283628
0.284668
0.28628
0.286704
0.285353
0.283554
0.283132
0.284447
0.286091
0.286495
0.285559
0.284555
0.284568
0.285298
0.285482
0.284393
0.282798
0.282358
0.284034
0.287055
0.289434
0.289504
0.287181
0.283863
0.281206
0.279967
0.27978
0.279987
0.280546
0.28213
0.285397
0.290071
0.294692
0.297297
0.296498
0.292227
0.285804
0.279347
0.274955
0.274086
0.27723
0.283804
0.292242
0.30039
0.306119
0.30797
0.305497
0.299288
0.290954
0.282817
0.277186
0.275606
0.278531
0.285376
0.294567
0.30384
0.31085
0.313783
0.311752
0.305047
0.295252
0.284842
0.276341
0.271575
0.271328
0.275324
0.282245
0.28988
0.295672
0.297627
0.295253
0.289906
0.28423
0.280754
0.280419
0.282156
0.283868
0.284086
0.28306
0.282368
0.283346
0.285775
0.28791
0.287984
0.285865
0.283316
0.282489
0.283967
0.28631
0.287484
0.28677
0.285189
0.284237
0.28434
0.284503
0.283644
0.282097
0.281452
0.282937
0.285942
0.288372
0.288677
0.287184
0.285461
0.284518
0.283845
0.282484
0.280606
0.279556
0.280238
0.282119
0.283951
0.285037
0.285604
0.285802
0.285247
0.283813
0.28227
0.281562
0.281577
0.281351
0.280489
0.279948
0.280782
0.282549
0.283792
0.283805
0.283553
0.284365
0.286062
0.287128
0.286721
0.285788
0.285549
0.285676
0.284725
0.282427
0.280869
0.282433
0.286842
0.290659
0.290068
0.284698
0.278503
0.276719
0.28145
0.289652
0.295452
0.294593
0.287558
0.278849
0.273499
0.27378
0.278454
0.284373
0.288595
0.289744
0.288
0.284745
0.281882
0.281068
0.283115
0.287549
0.292848
0.297186
0.299368
0.299208
0.297431
0.295212
0.293551
0.292943
0.293306
0.294111
0.294593
0.294123
0.292428
0.289713
0.286667
0.284128
0.282709
0.282598
0.283703
0.28568
0.288
0.290048
0.291348
0.291841
0.29191
0.292221
0.293336
0.295377
0.297768
0.299407
0.299224
0.296692
0.292235
0.287117
0.283
0.281219
0.282129
0.284956
0.288087
0.28973
0.288566
0.284323
0.278346
0.273598
0.273318
0.27876
0.287591
0.294758
0.295768
0.290059
0.281712
0.276546
0.27776
0.28356
0.288907
0.289876
0.286775
0.28323
0.282353
0.283994
0.285693
0.285801
0.284983
0.284744
0.285289
0.285534
0.28489
0.284174
0.284425
0.285405
0.285893
0.285308
0.284436
0.284332
0.284994
0.285512
0.285327
0.284836
0.284694
0.284945
0.284997
0.285155
0.285188
0.285149
0.284984
0.284701
0.284586
0.284945
0.285565
0.285735
0.285035
0.284036
0.283882
0.284994
0.286376
0.286504
0.285006
0.283265
0.283089
0.284769
0.286684
0.286975
0.285495
0.283872
0.283654
0.284661
0.285362
0.28477
0.283664
0.283766
0.285776
0.288382
0.2893
0.287333
0.283438
0.279927
0.27862
0.279659
0.281855
0.284013
0.285966
0.288355
0.291573
0.294923
0.296662
0.295074
0.289719
0.281873
0.273983
0.268503
0.266911
0.269405
0.275058
0.282189
0.288878
0.293407
0.294592
0.292071
0.286383
0.27871
0.270391
0.262508
0.255854
0.251132
0.248963
0.249662
0.253143
0.259052
0.266943
0.276157
0.28552
0.293326
0.297882
0.298198
0.294349
0.287443
0.279296
0.271988
0.267501
0.267272
0.271635
0.279466
0.288258
0.294873
0.296981
0.294376
0.289196
0.284644
0.282883
0.283733
0.285116
0.284953
0.283022
0.281123
0.281361
0.284035
0.287177
0.288279
0.286617
0.28392
0.282736
0.284014
0.286342
0.287417
0.286323
0.284358
0.283516
0.284428
0.285722
0.285663
0.284283
0.283346
0.284366
0.286778
0.288439
0.287936
0.285901
0.284101
0.283399
0.283031
0.281839
0.279852
0.27839
0.27852
0.280037
0.281848
0.283074
0.283659
0.283936
0.283963
0.28334
0.281703
0.279256
0.276911
0.275857
0.276699
0.279068
0.281894
0.28426
0.286076
0.287776
0.289342
0.289878
0.288613
0.286067
0.28381
0.282831
0.282535
0.282018
0.281908
0.283824
0.287696
0.290512
0.288883
0.283132
0.278011
0.278628
0.285441
0.293255
0.2955
0.289725
0.279521
0.27162
0.270856
0.277165
0.286317
0.293305
0.295384
0.293033
0.288759
0.285251
0.284286
0.286019
0.289188
0.291717
0.29149
0.287539
0.280524
0.272455
0.265638
0.261741
0.261411
0.264256
0.269413
0.275817
0.282341
0.288033
0.292304
0.294931
0.295979
0.295823
0.294886
0.293584
0.292169
0.2907
0.289209
0.287707
0.286133
0.284155
0.281419
0.277784
0.273532
0.269522
0.266947
0.266897
0.269803
0.275168
0.281501
0.286887
0.289779
0.2897
0.287554
0.285051
0.284021
0.285503
0.289276
0.293727
0.296082
0.293861
0.286633
0.277215
0.270695
0.271329
0.27928
0.289719
0.295822
0.293794
0.285968
0.278879
0.277695
0.282053
0.287165
0.288784
0.2868
0.284225
0.283487
0.284356
0.285178
0.285138
0.284813
0.284952
0.285417
0.285519
0.285002
0.284387
0.284365
0.285003
0.28565
0.285613
0.284915
0.284313
0.284478
0.285219
0.285676
0.285328
0.284615
0.285047
0.284895
0.285003
0.285182
0.285009
0.284626
0.284697
0.285372
0.285803
0.285188
0.284037
0.283805
0.285068
0.286566
0.286491
0.284652
0.282891
0.283159
0.285342
0.287301
0.287084
0.284936
0.282977
0.282973
0.284593
0.285953
0.285776
0.284766
0.284692
0.286213
0.287874
0.28746
0.284333
0.280345
0.278438
0.280192
0.2846
0.289048
0.291444
0.291578
0.290584
0.28942
0.287869
0.28487
0.279917
0.274064
0.269626
0.268883
0.272671
0.279873
0.288007
0.294275
0.29658
0.294075
0.28721
0.277615
0.267774
0.260303
0.257122
0.258936
0.265123
0.273837
0.282447
0.288338
0.289738
0.28608
0.277982
0.267266
0.256701
0.249234
0.247085
0.251109
0.260533
0.273059
0.285575
0.295127
0.299733
0.298757
0.292836
0.283878
0.274925
0.269279
0.269049
0.273959
0.281252
0.287199
0.289395
0.28819
0.286154
0.285801
0.287472
0.289178
0.288551
0.285232
0.281433
0.280099
0.282241
0.285991
0.288226
0.287302
0.284461
0.282476
0.282932
0.284794
0.285798
0.285063
0.28402
0.284695
0.287194
0.289305
0.288789
0.285734
0.282507
0.281408
0.28246
0.28386
0.284263
0.284224
0.285299
0.287839
0.290279
0.290779
0.289267
0.287314
0.286202
0.285729
0.284966
0.284032
0.284163
0.285907
0.288064
0.288944
0.288452
0.288092
0.288896
0.289936
0.289572
0.287685
0.285816
0.285322
0.285776
0.285688
0.28447
0.283083
0.282803
0.283708
0.284748
0.285057
0.285073
0.285963
0.287701
0.288352
0.285851
0.280962
0.277915
0.280651
0.288222
0.294448
0.293069
0.283838
0.273264
0.269378
0.2752
0.286775
0.296732
0.299713
0.295316
0.287207
0.280089
0.276925
0.278126
0.282005
0.286013
0.287811
0.286016
0.280857
0.274108
0.268269
0.265301
0.265848
0.269041
0.273109
0.276425
0.27807
0.277974
0.276698
0.275139
0.274164
0.274362
0.275769
0.277861
0.279929
0.281401
0.282011
0.281732
0.280839
0.279824
0.279159
0.27906
0.279332
0.279456
0.278704
0.276514
0.272906
0.268786
0.265793
0.265579
0.268863
0.274816
0.281413
0.286284
0.287814
0.285873
0.281786
0.27791
0.276784
0.280031
0.287253
0.295453
0.299907
0.296884
0.286765
0.275018
0.269117
0.273
0.283576
0.292885
0.29458
0.288916
0.281796
0.279024
0.281538
0.28573
0.28766
0.286565
0.284622
0.284035
0.284836
0.285456
0.284961
0.284174
0.284431
0.285648
0.286277
0.285332
0.283856
0.283712
0.285145
0.286365
0.285845
0.284314
0.283761
0.284801
0.285962
0.285753
0.28461
0.285082
0.284538
0.28466
0.28513
0.285239
0.284996
0.28498
0.285259
0.285181
0.284516
0.284141
0.284932
0.286249
0.286361
0.284673
0.282876
0.283198
0.285656
0.287733
0.287098
0.284253
0.282049
0.28262
0.285201
0.287132
0.286781
0.285109
0.284323
0.285249
0.286375
0.28556
0.2826
0.279843
0.280148
0.284187
0.289649
0.293116
0.292778
0.289501
0.285591
0.282589
0.280225
0.277337
0.273674
0.270771
0.271056
0.275999
0.284838
0.29481
0.302538
0.305572
0.3033
0.296826
0.288262
0.280033
0.274312
0.272564
0.275265
0.28178
0.290612
0.300024
0.308637
0.315591
0.320345
0.322501
0.321806
0.31816
0.311594
0.302343
0.291215
0.279916
0.270797
0.265994
0.266551
0.272098
0.281116
0.291346
0.300171
0.305094
0.304339
0.297685
0.287173
0.276779
0.27065
0.270841
0.275994
0.282186
0.285659
0.285421
0.283664
0.28358
0.286316
0.289846
0.290878
0.287991
0.283182
0.280255
0.281381
0.285113
0.287802
0.287091
0.284146
0.282208
0.283138
0.285626
0.286842
0.285648
0.283676
0.283417
0.28538
0.287404
0.287058
0.284312
0.281661
0.281468
0.28343
0.285271
0.285559
0.28525
0.286171
0.288555
0.290719
0.291132
0.2902
0.289248
0.288581
0.287486
0.285842
0.284845
0.285511
0.28725
0.288706
0.289716
0.291233
0.293235
0.293925
0.291681
0.287524
0.284318
0.283393
0.283225
0.281952
0.28024
0.280432
0.28326
0.286582
0.287888
0.287238
0.286681
0.287161
0.287081
0.284527
0.280505
0.278963
0.282745
0.289692
0.293505
0.289339
0.27915
0.270993
0.27237
0.283498
0.296734
0.302798
0.297884
0.285806
0.274102
0.268493
0.269973
0.275677
0.281588
0.284646
0.283928
0.28055
0.277023
0.276217
0.279791
0.287475
0.297184
0.306024
0.311568
0.312642
0.309515
0.303324
0.295516
0.287456
0.280273
0.274755
0.271267
0.269755
0.269732
0.270647
0.272006
0.273508
0.275083
0.276762
0.278652
0.280903
0.283882
0.287919
0.293059
0.298811
0.303971
0.306922
0.306317
0.301864
0.294561
0.286612
0.280534
0.277989
0.279099
0.282275
0.285025
0.285022
0.281352
0.275069
0.269121
0.26763
0.273455
0.285509
0.297881
0.302904
0.296858
0.283598
0.272352
0.270688
0.278587
0.288824
0.293418
0.290226
0.283839
0.280436
0.281987
0.2854
0.286754
0.285527
0.284259
0.28477
0.285957
0.285731
0.284159
0.283407
0.284667
0.286403
0.286385
0.284683
0.283518
0.284265
0.285759
0.286056
0.285016
0.284206
0.284589
0.285381
0.285436
0.284875
0.28493
0.28451
0.284686
0.285116
0.285329
0.285267
0.285088
0.284807
0.284488
0.284523
0.285223
0.286066
0.285925
0.284481
0.283097
0.283582
0.28591
0.287738
0.286806
0.283691
0.28152
0.282659
0.286054
0.288324