# vtk DataFile Version 3.0
PFC-RG simulation results
ASCII
DATASET STRUCTURED_POINTS
DIMENSIONS 256 256 1
ORIGIN 0 0 0
SPACING 1 1 1
POINT_DATA 65536
SCALARS psi double
LOOKUP_TABLE default
0.284939
0.285036
0.285107
0.285068
0.284946
0.284867
0.284928
0.285076
0.285158
0.285078
0.284912
0.284828
0.284913
0.285078
0.285157
0.285084
0.284952
0.2849
0.284961
0.285038
0.285025
0.284932
0.284882
0.284972
0.285156
0.285278
0.285216
0.284985
0.284727
0.284597
0.28466
0.284869
0.28511
0.285278
0.285336
0.285328
0.285323
0.285331
0.285282
0.28509
0.284744
0.284325
0.283938
0.283661
0.283566
0.283734
0.284244
0.285089
0.286094
0.287029
0.287693
0.287922
0.287667
0.286963
0.285898
0.284687
0.283664
0.283094
0.283109
0.283841
0.285372
0.287534
0.289835
0.291591
0.292237
0.291612
0.289964
0.287794
0.285659
0.284021
0.283154
0.283098
0.283676
0.284603
0.285572
0.286365
0.286951
0.287334
0.287382
0.286973
0.286201
0.285295
0.284489
0.283948
0.283674
0.283612
0.283764
0.284156
0.284748
0.285364
0.285742
0.285707
0.285305
0.284796
0.284498
0.284579
0.284949
0.285345
0.28553
0.285457
0.285265
0.285124
0.285071
0.284986
0.284732
0.284324
0.283983
0.283984
0.28442
0.285095
0.285648
0.285869
0.285783
0.285518
0.285224
0.284911
0.284587
0.28443
0.284689
0.285428
0.286398
0.287266
0.287791
0.287992
0.287934
0.287472
0.286524
0.285302
0.284424
0.284439
0.285356
0.286688
0.287862
0.288526
0.288529
0.287937
0.286889
0.285556
0.284232
0.28323
0.28273
0.282805
0.283549
0.284901
0.286376
0.287267
0.287061
0.285802
0.284198
0.283191
0.283305
0.284305
0.28542
0.285919
0.28558
0.284761
0.284096
0.284073
0.284735
0.285684
0.286358
0.286372
0.285726
0.284771
0.283989
0.28374
0.284086
0.284765
0.285344
0.285476
0.285124
0.284569
0.28419
0.284184
0.284484
0.284909
0.285309
0.28568
0.28607
0.286498
0.286855
0.286959
0.286777
0.286289
0.285491
0.2845
0.283558
0.282905
0.28271
0.283022
0.283622
0.284286
0.284837
0.285216
0.285456
0.28561
0.285703
0.285655
0.285482
0.285225
0.285006
0.284977
0.28515
0.285436
0.285757
0.286036
0.28609
0.285855
0.28541
0.284904
0.284504
0.284312
0.28438
0.284648
0.284977
0.28518
0.285093
0.28472
0.284254
0.283981
0.284133
0.284759
0.285652
0.286386
0.286517
0.28588
0.284759
0.283764
0.283469
0.284045
0.285129
0.286037
0.286204
0.285578
0.284659
0.284126
0.284303
0.284934
0.285457
0.285505
0.285172
0.284824
0.284726
0.284857
0.285029
0.285108
0.28509
0.285032
0.284979
0.284947
0.28495
0.284989
0.285035
0.285046
0.285012
0.284971
0.284964
0.285043
0.285062
0.284986
0.284909
0.284941
0.285062
0.285134
0.285058
0.284903
0.284834
0.284934
0.285106
0.285176
0.28508
0.28492
0.284852
0.284924
0.285039
0.28507
0.285005
0.28495
0.285005
0.285138
0.2852
0.285074
0.284812
0.284609
0.284637
0.284897
0.285224
0.28543
0.285443
0.285321
0.285166
0.285035
0.284918
0.28476
0.284517
0.284217
0.283988
0.284016
0.284444
0.28525
0.286216
0.287023
0.287368
0.287079
0.286193
0.284933
0.283691
0.282899
0.282795
0.283393
0.284587
0.286143
0.287711
0.288933
0.289513
0.289229
0.288033
0.286164
0.284128
0.282555
0.281961
0.282573
0.284247
0.286454
0.288479
0.28975
0.290051
0.289499
0.288342
0.286818
0.285195
0.283785
0.282867
0.282653
0.283242
0.284452
0.285814
0.286859
0.287304
0.287096
0.286389
0.28543
0.284486
0.283826
0.283645
0.28398
0.284651
0.28531
0.285627
0.285488
0.285053
0.284647
0.284529
0.284726
0.28504
0.28523
0.285213
0.285116
0.285157
0.285415
0.285734
0.285834
0.285531
0.284888
0.284159
0.283594
0.283317
0.283386
0.283834
0.284643
0.285617
0.286326
0.286448
0.28595
0.285068
0.284216
0.283749
0.283793
0.284238
0.285032
0.286152
0.287382
0.288375
0.288648
0.287975
0.286594
0.28507
0.28389
0.283163
0.282799
0.282633
0.282721
0.283117
0.283653
0.284128
0.284394
0.284533
0.284747
0.285145
0.285543
0.285578
0.285072
0.284175
0.283447
0.283479
0.284364
0.28559
0.286347
0.286133
0.285153
0.28416
0.283875
0.284471
0.285524
0.286343
0.28643
0.285725
0.284609
0.283661
0.283336
0.283729
0.284558
0.285345
0.285702
0.285522
0.285016
0.284574
0.284512
0.284859
0.285356
0.285742
0.285904
0.285916
0.285949
0.286162
0.286606
0.287176
0.287783
0.288345
0.288734
0.288822
0.288478
0.287598
0.286329
0.285049
0.284038
0.28342
0.283153
0.283057
0.283057
0.283276
0.283836
0.284717
0.28583
0.286992
0.287919
0.288419
0.288464
0.28812
0.287572
0.287025
0.286589
0.286325
0.286235
0.286188
0.286045
0.28574
0.285319
0.284913
0.284684
0.284752
0.285043
0.285355
0.285462
0.285208
0.284593
0.283854
0.283408
0.283616
0.284515
0.285728
0.286629
0.286698
0.285845
0.28454
0.283568
0.28353
0.284403
0.285535
0.286138
0.285878
0.285083
0.284407
0.284296
0.2847
0.285209
0.285431
0.285276
0.284961
0.284774
0.284826
0.284999
0.285102
0.28507
0.284994
0.284975
0.285007
0.285013
0.284971
0.284949
0.284998
0.285067
0.285035
0.285006
0.284942
0.28491
0.284977
0.2851
0.285139
0.285022
0.284854
0.284822
0.28498
0.285173
0.285199
0.28503
0.284838
0.284809
0.284951
0.285105
0.285127
0.285032
0.284956
0.284989
0.285079
0.285089
0.284953
0.284758
0.284684
0.284845
0.285177
0.285469
0.28552
0.285295
0.284942
0.284663
0.284555
0.284571
0.284608
0.284626
0.284679
0.284855
0.285197
0.285674
0.286192
0.286614
0.28677
0.286532
0.285863
0.284849
0.283703
0.28266
0.281937
0.28173
0.282087
0.28291
0.28404
0.285243
0.286217
0.286727
0.286623
0.285749
0.284051
0.281757
0.279378
0.277568
0.276861
0.277444
0.279129
0.281431
0.28373
0.285495
0.286454
0.286625
0.286216
0.285457
0.284546
0.283656
0.282887
0.282354
0.282257
0.282708
0.283565
0.284579
0.28553
0.28625
0.286671
0.286753
0.286454
0.285817
0.285025
0.284378
0.284147
0.28439
0.284898
0.285327
0.285416
0.285159
0.284786
0.28458
0.28465
0.284866
0.284993
0.284927
0.284799
0.284854
0.285209
0.285706
0.28601
0.285876
0.285357
0.284753
0.284381
0.284301
0.284387
0.284545
0.284752
0.285092
0.285523
0.285736
0.285425
0.284613
0.283679
0.282973
0.282607
0.282431
0.282388
0.282746
0.283705
0.285036
0.285995
0.285959
0.284995
0.283705
0.282641
0.282017
0.281902
0.282314
0.283242
0.28454
0.285826
0.286714
0.287082
0.286994
0.286435
0.285358
0.284034
0.283018
0.282876
0.283816
0.285391
0.286696
0.28696
0.28607
0.284676
0.283745
0.283886
0.284926
0.286064
0.28646
0.285831
0.284587
0.283491
0.283147
0.283696
0.284806
0.285908
0.286494
0.286358
0.28568
0.284907
0.284492
0.284629
0.285165
0.285722
0.285974
0.285812
0.285325
0.284726
0.284159
0.28366
0.283182
0.282767
0.282585
0.282733
0.283301
0.284281
0.285466
0.286537
0.287249
0.287481
0.287219
0.286642
0.285928
0.285301
0.284901
0.284704
0.284595
0.284482
0.284441
0.284511
0.284695
0.284847
0.284776
0.284483
0.28412
0.283817
0.283631
0.28369
0.284043
0.284621
0.285245
0.285679
0.285788
0.285579
0.285208
0.284872
0.284771
0.28504
0.28561
0.28618
0.286351
0.285878
0.284848
0.283699
0.283034
0.283296
0.284457
0.285924
0.286844
0.286654
0.285503
0.284169
0.283514
0.283887
0.284914
0.285815
0.285989
0.285431
0.284684
0.284352
0.284602
0.285087
0.285341
0.285225
0.284976
0.284872
0.284939
0.285009
0.284988
0.28496
0.285017
0.285096
0.285068
0.28494
0.284871
0.284959
0.285101
0.28507
0.284978
0.284896
0.284934
0.28507
0.285146
0.28505
0.284867
0.28481
0.28497
0.28519
0.285226
0.28502
0.28478
0.284755
0.284969
0.285197
0.285216
0.28504
0.284881
0.284894
0.285017
0.285063
0.284949
0.284801
0.284818
0.285058
0.285361
0.285485
0.285305
0.284912
0.284534
0.284373
0.284477
0.284733
0.28498
0.285142
0.285279
0.285505
0.285841
0.286144
0.286176
0.285754
0.284872
0.283746
0.282719
0.282175
0.282395
0.283372
0.284818
0.286261
0.287207
0.287399
0.286825
0.285566
0.283853
0.282112
0.280781
0.280162
0.280454
0.281695
0.283646
0.285812
0.28751
0.288138
0.287438
0.285589
0.283197
0.281049
0.279719
0.279396
0.279975
0.281243
0.282982
0.284879
0.286484
0.287434
0.287546
0.286791
0.285395
0.283867
0.282704
0.282217
0.282521
0.283466
0.284714
0.285855
0.286514
0.286505
0.285926
0.285125
0.284533
0.284419
0.284734
0.28517
0.285386
0.285254
0.284935
0.284724
0.284792
0.28503
0.285152
0.284956
0.28453
0.284183
0.2842
0.284617
0.285222
0.285762
0.286148
0.286413
0.286492
0.286181
0.285353
0.284258
0.283497
0.283483
0.284139
0.285026
0.285692
0.286001
0.286042
0.285861
0.285231
0.284031
0.282637
0.281636
0.281519
0.282292
0.283557
0.28485
0.285914
0.286714
0.287169
0.287268
0.287017
0.286565
0.286126
0.285738
0.285432
0.285243
0.285144
0.284993
0.284717
0.284479
0.284595
0.285284
0.286211
0.28663
0.286064
0.284761
0.283603
0.28343
0.284364
0.285723
0.286527
0.286197
0.284938
0.283575
0.282987
0.283541
0.2849
0.286296
0.287028
0.286835
0.285956
0.284915
0.28422
0.284134
0.284569
0.285154
0.285468
0.285316
0.284834
0.28428
0.283875
0.283689
0.283625
0.283488
0.283138
0.282633
0.282096
0.281646
0.281374
0.281331
0.281616
0.282376
0.28354
0.284771
0.28576
0.286333
0.286543
0.286616
0.286663
0.286536
0.28605
0.285212
0.284162
0.283099
0.282257
0.281762
0.281636
0.281873
0.282337
0.282795
0.283109
0.283264
0.283337
0.283487
0.283798
0.284254
0.284761
0.285172
0.285317
0.285092
0.284647
0.284305
0.284369
0.284954
0.285897
0.286771
0.28704
0.286375
0.284948
0.283452
0.282736
0.283251
0.284713
0.286239
0.286895
0.286317
0.284972
0.283836
0.283674
0.284461
0.285455
0.285874
0.285536
0.284907
0.284563
0.284667
0.284962
0.285144
0.285143
0.285071
0.285012
0.284963
0.284922
0.284929
0.285001
0.285077
0.285073
0.284995
0.284935
0.284955
0.285017
0.285028
0.284983
0.284974
0.285037
0.28508
0.285012
0.284888
0.284867
0.285012
0.285184
0.285179
0.284971
0.284763
0.28478
0.285019
0.285246
0.285239
0.285016
0.284808
0.284805
0.284969
0.285092
0.285044
0.28492
0.284925
0.285125
0.285346
0.28533
0.285001
0.284562
0.284328
0.284466
0.284882
0.285323
0.285581
0.285616
0.285523
0.285416
0.28533
0.28519
0.284878
0.284346
0.28368
0.283095
0.282846
0.283108
0.283912
0.285125
0.286493
0.287731
0.288534
0.288691
0.288219
0.287282
0.28608
0.284858
0.28389
0.283418
0.283639
0.284682
0.286536
0.288949
0.291415
0.293311
0.29409
0.2935
0.291714
0.289278
0.286849
0.284954
0.283834
0.28345
0.283669
0.284341
0.285294
0.286347
0.287321
0.287989
0.288124
0.287649
0.286694
0.285493
0.284302
0.283352
0.282818
0.282828
0.283389
0.284318
0.285261
0.285839
0.285854
0.285419
0.284894
0.284645
0.284799
0.285166
0.285408
0.285327
0.285026
0.284808
0.284894
0.285203
0.285407
0.285229
0.284712
0.284204
0.284067
0.284376
0.28489
0.2853
0.285478
0.285547
0.285608
0.285552
0.285268
0.284773
0.284316
0.284245
0.284691
0.285451
0.286172
0.286709
0.287093
0.287394
0.287489
0.287067
0.28605
0.284758
0.283855
0.283852
0.284698
0.285907
0.286985
0.287658
0.287784
0.287378
0.286539
0.285402
0.284241
0.283376
0.282995
0.283122
0.283708
0.284647
0.285694
0.286566
0.286939
0.286482
0.285198
0.283671
0.282845
0.283352
0.284898
0.286383
0.286721
0.28569
0.284076
0.283056
0.283337
0.284734
0.286378
0.287313
0.287056
0.285819
0.284304
0.283267
0.283111
0.283737
0.284685
0.285403
0.285545
0.28512
0.284457
0.283961
0.283903
0.284337
0.285078
0.285896
0.286626
0.287243
0.287724
0.287947
0.287818
0.28719
0.286033
0.2846
0.283321
0.282502
0.282232
0.282471
0.283033
0.28376
0.284429
0.284866
0.285064
0.285154
0.285278
0.285395
0.285462
0.28543
0.285414
0.285615
0.286027
0.286452
0.286717
0.286766
0.286514
0.285968
0.285239
0.284532
0.284106
0.284111
0.284498
0.284994
0.285299
0.285195
0.284637
0.283842
0.283248
0.283336
0.284293
0.285801
0.287115
0.28747
0.286555
0.284787
0.283152
0.282635
0.283552
0.285261
0.286583
0.286668
0.285627
0.284374
0.283832
0.284229
0.285053
0.285603
0.285561
0.285132
0.284748
0.284681
0.284875
0.285086
0.285135
0.285053
0.284982
0.284989
0.285011
0.284977
0.28493
0.284962
0.285064
0.285111
0.285025
0.284896
0.284958
0.284992
0.28507
0.285103
0.285007
0.284859
0.284845
0.285031
0.285228
0.285189
0.284917
0.284697
0.284786
0.285111
0.285337
0.285232
0.28491
0.284695
0.284774
0.285028
0.285188
0.285131
0.284982
0.284949
0.285081
0.285206
0.285115
0.284791
0.284474
0.284459
0.284837
0.285394
0.285782
0.285787
0.285473
0.285079
0.284792
0.284612
0.284406
0.284092
0.283761
0.283646
0.283992
0.284895
0.286189
0.287475
0.288245
0.288123
0.287088
0.28546
0.28379
0.282631
0.282281
0.28281
0.284155
0.286038
0.287961
0.289436
0.290125
0.289826
0.288502
0.286379
0.284007
0.282151
0.281489
0.282292
0.284317
0.286882
0.289181
0.290647
0.291065
0.290481
0.289053
0.287037
0.284873
0.283105
0.282139
0.282155
0.283131
0.284774
0.286534
0.287844
0.288304
0.287779
0.286494
0.284938
0.28368
0.28315
0.28344
0.284265
0.285113
0.285531
0.285398
0.284972
0.284671
0.284747
0.285104
0.2854
0.285349
0.284985
0.284647
0.28468
0.285117
0.285636
0.285848
0.285631
0.28518
0.284762
0.284444
0.284095
0.283667
0.283423
0.283753
0.284742
0.285931
0.286584
0.286394
0.28566
0.284923
0.284489
0.284255
0.284043
0.283972
0.284512
0.285831
0.287354
0.288302
0.288246
0.287407
0.286281
0.285191
0.284201
0.283336
0.282829
0.282797
0.283166
0.283651
0.284022
0.284351
0.284675
0.284907
0.284954
0.284939
0.285058
0.285317
0.285452
0.285083
0.284257
0.283546
0.283602
0.284623
0.286044
0.286853
0.286354
0.284794
0.283281
0.282972
0.284173
0.286088
0.287427
0.287332
0.285897
0.283987
0.282624
0.282401
0.283251
0.284599
0.285736
0.28618
0.285888
0.285216
0.284664
0.284561
0.284919
0.285566
0.286221
0.286659
0.286841
0.286943
0.287173
0.287542
0.287958
0.288289
0.288458
0.288453
0.288219
0.287596
0.286587
0.285463
0.284528
0.283985
0.283806
0.283761
0.283705
0.283763
0.284144
0.28488
0.285842
0.286813
0.287563
0.28801
0.288175
0.28806
0.287754
0.287442
0.287241
0.287158
0.287083
0.286819
0.286304
0.285653
0.285066
0.284726
0.284764
0.285195
0.285769
0.286046
0.285664
0.28461
0.283294
0.282404
0.282562
0.283913
0.285909
0.287486
0.287683
0.286334
0.284284
0.282856
0.28292
0.284277
0.285863
0.286578
0.286077
0.284935
0.284105
0.284139
0.28481
0.285421
0.28549
0.285137
0.28483
0.284829
0.284981
0.285023
0.284951
0.284955
0.285088
0.285162
0.285027
0.284827
0.284828
0.285047
0.285209
0.285105
0.284875
0.284934
0.284977
0.285065
0.285063
0.284947
0.284871
0.284974
0.285161
0.285183
0.284958
0.284721
0.284777
0.285114
0.285375
0.285251
0.284848
0.284586
0.284734
0.285122
0.285348
0.285223
0.284945
0.28483
0.284956
0.2851
0.285024
0.284759
0.284588
0.284765
0.285249
0.285712
0.285805
0.285432
0.284811
0.284297
0.284117
0.284244
0.284477
0.284654
0.284797
0.285073
0.285618
0.286389
0.28714
0.287539
0.287326
0.286418
0.284959
0.28328
0.281782
0.280853
0.280715
0.281305
0.2824
0.283748
0.285069
0.286051
0.286428
0.286018
0.284745
0.282666
0.280042
0.277379
0.275318
0.274453
0.275068
0.276968
0.279562
0.282172
0.284286
0.285677
0.286352
0.286363
0.285779
0.284756
0.283524
0.282341
0.281503
0.281284
0.281793
0.282924
0.28443
0.285967
0.287165
0.287723
0.287492
0.286582
0.285379
0.284396
0.284018
0.284279
0.284846
0.28525
0.285213
0.284837
0.284507
0.284559
0.284973
0.285382
0.285401
0.284992
0.284522
0.284443
0.284872
0.285486
0.285822
0.285696
0.285309
0.284993
0.284857
0.284751
0.284504
0.284247
0.284341
0.284876
0.28553
0.285834
0.285601
0.285069
0.284568
0.284176
0.283687
0.283073
0.282597
0.282615
0.283271
0.2843
0.285343
0.286067
0.286229
0.285703
0.284587
0.283306
0.282444
0.282386
0.282961
0.283764
0.284632
0.285573
0.286473
0.286996
0.286856
0.286113
0.285166
0.2844
0.28384
0.283427
0.283434
0.284241
0.285719
0.28701
0.287115
0.285795
0.283909
0.282823
0.283371
0.285206
0.287034
0.287538
0.286314
0.284121
0.282327
0.281975
0.283158
0.285105
0.286767
0.287426
0.286985
0.285885
0.284811
0.28431
0.284541
0.285238
0.285943
0.286251
0.285954
0.285149
0.28409
0.283053
0.282185
0.281564
0.281308
0.281489
0.282235
0.283578
0.285248
0.286761
0.287749
0.288098
0.287863
0.287285
0.286554
0.285874
0.285405
0.285182
0.285084
0.284945
0.284769
0.284575
0.284421
0.284235
0.283849
0.2833
0.282818
0.282596
0.282702
0.283202
0.284009
0.28492
0.285681
0.28603
0.285857
0.285285
0.284703
0.284519
0.284949
0.285891
0.286896
0.287344
0.286745
0.285113
0.283125
0.281866
0.282171
0.283998
0.286325
0.287753
0.287432
0.285658
0.283688
0.28285
0.283584
0.285146
0.286257
0.286178
0.285248
0.284424
0.284324
0.284767
0.285176
0.285243
0.285115
0.285033
0.285013
0.28495
0.284863
0.284891
0.285051
0.285168
0.285097
0.284924
0.284859
0.284961
0.285083
0.285078
0.284986
0.284971
0.28497
0.284986
0.284966
0.284958
0.285031
0.285128
0.285097
0.284911
0.284763
0.284863
0.28516
0.285343
0.285174
0.284786
0.284573
0.284777
0.285209
0.285441
0.285255
0.284866
0.284671
0.284815
0.285063
0.285101
0.284909
0.284783
0.284983
0.285418
0.285692
0.285481
0.284845
0.284185
0.283916
0.284159
0.284702
0.285226
0.285561
0.285772
0.28601
0.286309
0.286494
0.286254
0.285367
0.283916
0.282342
0.281275
0.281202
0.28222
0.284019
0.285975
0.287443
0.28803
0.287588
0.286176
0.284131
0.281998
0.280307
0.279461
0.279699
0.281074
0.283342
0.285873
0.287821
0.288471
0.287551
0.285348
0.282598
0.280124
0.278523
0.278074
0.278784
0.280506
0.282895
0.285368
0.287305
0.288277
0.288094
0.286816
0.284825
0.28277
0.281337
0.281025
0.281928
0.283657
0.285511
0.286778
0.287052
0.286431
0.285433
0.28469
0.284563
0.28493
0.28532
0.285314
0.284889
0.284432
0.284385
0.284832
0.285409
0.285613
0.285256
0.28463
0.284233
0.284309
0.284668
0.284951
0.285061
0.285257
0.285789
0.286474
0.286731
0.286154
0.284959
0.283875
0.283539
0.283897
0.284453
0.284891
0.28526
0.285707
0.286123
0.286174
0.285509
0.284199
0.282835
0.281995
0.28198
0.282686
0.283789
0.284948
0.28592
0.286625
0.287002
0.287086
0.286847
0.286349
0.285812
0.285398
0.285196
0.28513
0.285082
0.285003
0.284936
0.28489
0.284813
0.284853
0.285233
0.285924
0.286426
0.28604
0.284666
0.283199
0.282907
0.284257
0.286352
0.287587
0.286935
0.284759
0.282513
0.281682
0.282789
0.285147
0.28739
0.288362
0.287753
0.286127
0.284446
0.283489
0.283503
0.284195
0.285
0.285426
0.285273
0.284601
0.283716
0.282968
0.282553
0.28239
0.282268
0.282105
0.281904
0.281744
0.2817
0.281765
0.28197
0.282478
0.283319
0.284262
0.285056
0.285512
0.285639
0.285664
0.285751
0.285787
0.285565
0.285019
0.284221
0.283371
0.282707
0.282301
0.282095
0.282051
0.282099
0.282148
0.282182
0.282219
0.282361
0.282798
0.283558
0.284426
0.285081
0.28528
0.284959
0.284261
0.283618
0.283578
0.284474
0.286113
0.287746
0.288396
0.287454
0.285186
0.282732
0.281501
0.282269
0.284574
0.286915
0.287759
0.286677
0.284658
0.283279
0.283405
0.284607
0.285734
0.285985
0.285455
0.284798
0.284534
0.284695
0.28499
0.285152
0.285136
0.285052
0.285003
0.28499
0.284958
0.284913
0.284931
0.285043
0.285142
0.285095
0.284926
0.284826
0.284928
0.285121
0.285022
0.285023
0.284958
0.284906
0.284989
0.285143
0.285146
0.284926
0.284728
0.284842
0.285198
0.285389
0.285144
0.284687
0.284521
0.284855
0.28536
0.285519
0.285181
0.284697
0.284532
0.284791
0.285155
0.285259
0.285076
0.284909
0.285021
0.285318
0.28542
0.285068
0.284429
0.28399
0.284146
0.284852
0.285676
0.286149
0.286117
0.285772
0.285412
0.28516
0.284888
0.284381
0.283568
0.282643
0.282011
0.282063
0.282998
0.284708
0.286759
0.288595
0.28974
0.289932
0.289237
0.287944
0.28638
0.284897
0.283883
0.283617
0.284209
0.285688
0.287984
0.290817
0.293671
0.295863
0.296761
0.296098
0.294085
0.291311
0.288467
0.286077
0.284394
0.283476
0.283312
0.283884
0.28506
0.286539
0.287984
0.289052
0.289382
0.288771
0.287323
0.285375
0.283419
0.282032
0.281617
0.282243
0.283581
0.285001
0.285878
0.285938
0.285411
0.284861
0.284767
0.285159
0.285623
0.28567
0.285177
0.284521
0.284265
0.284649
0.285347
0.285742
0.285488
0.28483
0.284345
0.284361
0.284686
0.284897
0.284853
0.284839
0.285145
0.285675
0.285933
0.285536
0.284751
0.284196
0.284237
0.284671
0.285027
0.285166
0.2854
0.286067
0.286927
0.287396
0.287133
0.286294
0.285359
0.284564
0.283944
0.283621
0.283902
0.284939
0.286341
0.287346
0.287421
0.286786
0.285979
0.285217
0.284415
0.283589
0.283062
0.283173
0.283916
0.284878
0.285585
0.285964
0.286203
0.286289
0.28593
0.284917
0.283578
0.282794
0.283365
0.285197
0.287091
0.287534
0.285968
0.283407
0.281732
0.282242
0.284666
0.287425
0.288817
0.288119
0.285885
0.283421
0.281952
0.281986
0.283182
0.28468
0.285663
0.285756
0.285114
0.284217
0.28361
0.283675
0.28445
0.285705
0.287082
0.288308
0.289185
0.28954
0.28932
0.288434
0.286883
0.28496
0.283172
0.281945
0.281452
0.281647
0.282235
0.282983
0.283677
0.284165
0.284421
0.284561
0.284761
0.285045
0.285413
0.285795
0.286227
0.28682
0.28749
0.287986
0.288101
0.287761
0.286944
0.285832
0.284739
0.283987
0.283826
0.28426
0.28502
0.285589
0.285494
0.284585
0.283183
0.282044
0.282001
0.283433
0.285894
0.288184
0.288947
0.287561
0.284722
0.282163
0.281507
0.283068
0.285602
0.287286
0.28711
0.285541
0.283968
0.283519
0.284253
0.285313
0.285789
0.285484
0.284921
0.284687
0.284848
0.285032
0.284997
0.284907
0.285011
0.285213
0.285188
0.284889
0.284679
0.284861
0.285228
0.28531
0.284999
0.284705
0.284806
0.285146
0.285045
0.28511
0.285016
0.284923
0.284981
0.285086
0.285034
0.284863
0.284846
0.285093
0.285317
0.285165
0.284731
0.284521
0.284856
0.285421
0.285586
0.285134
0.284526
0.284388
0.28483
0.285366
0.285477
0.285156
0.284834
0.284858
0.285111
0.285182
0.284851
0.284369
0.284238
0.28473
0.285605
0.286284
0.286318
0.285719
0.284886
0.284242
0.283918
0.283756
0.283563
0.28338
0.28352
0.284328
0.285848
0.287678
0.289109
0.289487
0.288576
0.286633
0.284326
0.282443
0.281538
0.281841
0.283301
0.285541
0.28793
0.289853
0.290854
0.29064
0.289138
0.286644
0.283873
0.281762
0.281079
0.282089
0.284492
0.287523
0.290281
0.292064
0.29252
0.291624
0.289589
0.286849
0.284076
0.281993
0.281082
0.281518
0.283201
0.285648
0.288024
0.28948
0.289492
0.288076
0.285867
0.28382
0.282737
0.282881
0.283853
0.284877
0.285321
0.285085
0.28462
0.284517
0.28499
0.285676
0.285954
0.285518
0.284692
0.284167
0.284372
0.285079
0.28565
0.285665
0.285305
0.285077
0.285193
0.28531
0.284932
0.284045
0.283271
0.283321
0.284257
0.285427
0.2861
0.286099
0.285868
0.285758
0.285557
0.284938
0.284079
0.2836
0.283883
0.284784
0.285866
0.286818
0.2876
0.287973
0.287545
0.286285
0.284803
0.28384
0.283502
0.283369
0.2831
0.283009
0.283505
0.284369
0.284985
0.285008
0.284782
0.284808
0.285087
0.285209
0.285022
0.284883
0.285002
0.28508
0.284673
0.2839
0.283604
0.284479
0.286162
0.287318
0.28677
0.284635
0.282408
0.28187
0.28366
0.286686
0.288871
0.288681
0.286202
0.282982
0.280868
0.280825
0.282539
0.284866
0.286609
0.28713
0.286542
0.285482
0.284662
0.284506
0.285086
0.286128
0.287202
0.287951
0.288291
0.288361
0.288293
0.288207
0.288126
0.288016
0.287883
0.287694
0.28729
0.286638
0.285925
0.285333
0.285016
0.284966
0.284952
0.284808
0.28465
0.284693
0.285017
0.285595
0.286275
0.286848
0.287255
0.287562
0.287807
0.28804
0.288276
0.288434
0.288417
0.288116
0.287406
0.286369
0.285329
0.284705
0.284766
0.285481
0.28647
0.28704
0.286551
0.284854
0.282541
0.2808
0.280813
0.282935
0.286207
0.288764
0.28903
0.286879
0.283794
0.281846
0.282204
0.284328
0.286466
0.28708
0.286031
0.284512
0.283841
0.284294
0.285098
0.285433
0.285245
0.285019
0.285022
0.28505
0.284895
0.28474
0.284872
0.285199
0.285313
0.285054
0.284746
0.284771
0.285061
0.285223
0.285082
0.284878
0.284885
0.285041
0.285045
0.285114
0.285052
0.284983
0.284969
0.284954
0.284921
0.284964
0.28512
0.285219
0.285062
0.284739
0.284624
0.284945
0.285427
0.285525
0.285046
0.284442
0.284358
0.284915
0.285554
0.285642
0.285147
0.284628
0.284585
0.284927
0.285149
0.284955
0.284608
0.284632
0.285219
0.28597
0.286231
0.285678
0.284605
0.283672
0.283377
0.283726
0.284345
0.284867
0.285235
0.285682
0.286442
0.287465
0.288336
0.288506
0.287598
0.285646
0.28316
0.280851
0.279352
0.279025
0.279821
0.281383
0.283262
0.284985
0.286074
0.286238
0.285402
0.283575
0.280866
0.277606
0.274376
0.271921
0.270905
0.271595
0.273766
0.276821
0.280061
0.28293
0.285104
0.286428
0.286825
0.286268
0.2849
0.283088
0.281277
0.279939
0.279557
0.280411
0.282359
0.284897
0.287292
0.288758
0.288853
0.287704
0.285967
0.284525
0.283986
0.284337
0.285
0.285272
0.284883
0.284214
0.283953
0.28446
0.285402
0.286013
0.285781
0.284931
0.284222
0.284243
0.284884
0.285487
0.285546
0.285202
0.285007
0.285235
0.285524
0.285305
0.284565
0.28394
0.28408
0.284914
0.285644
0.285708
0.28533
0.2851
0.285219
0.285265
0.284781
0.283841
0.283063
0.282889
0.283246
0.283888
0.284662
0.285559
0.286341
0.286606
0.286164
0.285197
0.284091
0.283204
0.28285
0.283143
0.283975
0.285044
0.285935
0.286434
0.286618
0.286586
0.286192
0.28534
0.284399
0.28389
0.283931
0.284175
0.28433
0.284645
0.285537
0.286732
0.287151
0.285936
0.28361
0.281968
0.28257
0.285258
0.288126
0.288983
0.287041
0.283491
0.280607
0.280158
0.282293
0.28562
0.288263
0.289044
0.287999
0.286093
0.284472
0.283856
0.284302
0.285345
0.286288
0.286528
0.285852
0.284425
0.282661
0.280974
0.279725
0.279186
0.279425
0.280507
0.282374
0.28467
0.286828
0.288359
0.289032
0.288892
0.288268
0.28745
0.286721
0.28625
0.286016
0.285867
0.285603
0.285175
0.284567
0.283873
0.283103
0.282216
0.28136
0.280835
0.280883
0.28155
0.282767
0.284225
0.285495
0.286185
0.286075
0.285318
0.284407
0.284019
0.28462
0.28617
0.288008
0.289014
0.28823
0.285589
0.282251
0.280081
0.280488
0.283376
0.287013
0.289096
0.288358
0.28554
0.282833
0.28214
0.283591
0.28564
0.286598
0.286071
0.28497
0.284352
0.284466
0.284861
0.2851
0.285143
0.285141
0.285129
0.285043
0.284895
0.284812
0.284885
0.285061
0.285185
0.285143
0.284964
0.284812
0.284846
0.285047
0.285204
0.285133
0.284904
0.285039
0.28496
0.284967
0.28505
0.28504
0.284914
0.284884
0.285071
0.285246
0.285103
0.284733
0.284606
0.284977
0.285484
0.28551
0.284932
0.284332
0.284383
0.285086
0.28574
0.285685
0.284992
0.284365
0.284379
0.284905
0.285324
0.285243
0.284905
0.284866
0.285317
0.285818
0.285725
0.284865
0.28376
0.283202
0.283597
0.284677
0.285793
0.286463
0.286668
0.286692
0.286723
0.286585
0.285878
0.284376
0.282326
0.280452
0.279609
0.280255
0.282253
0.284924
0.287314
0.288676
0.288657
0.287248
0.284829
0.282126
0.279868
0.278581
0.27863
0.280114
0.282687
0.285573
0.287756
0.288413
0.287267
0.284622
0.281285
0.278276
0.276424
0.276151
0.277458
0.280014
0.283262
0.286428
0.288666
0.289426
0.288573
0.286319
0.283321
0.280669
0.279375
0.279916
0.282028
0.284724
0.286796
0.287483
0.286849
0.28568
0.284912
0.284967
0.2855
0.285754
0.28526
0.284298
0.283667
0.28396
0.284982
0.285896
0.285969
0.285243
0.284468
0.284331
0.284772
0.285103
0.284841
0.284328
0.284369
0.285273
0.286412
0.286827
0.286206
0.285161
0.284482
0.284336
0.284295
0.283994
0.28373
0.284116
0.285185
0.286208
0.28643
0.285851
0.284995
0.284228
0.283476
0.282571
0.281937
0.28227
0.28366
0.285279
0.286211
0.286397
0.286417
0.286687
0.286864
0.286462
0.285613
0.284888
0.28472
0.284944
0.285106
0.28501
0.28487
0.284914
0.285048
0.285088
0.285003
0.285051
0.285503
0.286091
0.286053
0.284888
0.283182
0.28245
0.283795
0.286591
0.288662
0.288054
0.284834
0.281191
0.279745
0.281563
0.28549
0.289123
0.290484
0.289146
0.286215
0.28342
0.282037
0.282303
0.283563
0.284855
0.285469
0.28511
0.283958
0.282515
0.281322
0.28067
0.280551
0.280836
0.281308
0.281805
0.282233
0.282523
0.282703
0.282952
0.283343
0.283746
0.284035
0.284104
0.284013
0.284009
0.284246
0.284598
0.284826
0.284824
0.284581
0.284169
0.283721
0.283257
0.282715
0.282109
0.281475
0.280883
0.280517
0.280565
0.281148
0.282274
0.28367
0.284838
0.285282
0.284786
0.283582
0.282361
0.282099
0.283468
0.28624
0.289161
0.290515
0.289174
0.285521
0.281526
0.279633
0.281045
0.284702
0.28798
0.288697
0.286769
0.284073
0.282711
0.283333
0.284929
0.286023
0.285965
0.285221
0.284652
0.284644
0.28491
0.285015
0.284925
0.284944
0.285182
0.285326
0.285071
0.284644
0.284596
0.285054
0.285469
0.285301
0.284755
0.28454
0.284922
0.285374
0.285302
0.284843
0.285008
0.284754
0.284848
0.285116
0.285166
0.284978
0.284894
0.285042
0.285128
0.284927
0.284713
0.2849
0.285364
0.285484
0.28496
0.284327
0.28438
0.285178
0.285886
0.285704
0.284789
0.284078
0.284262
0.285076
0.285669
0.285539
0.28501
0.284769
0.285058
0.285415
0.285213
0.284397
0.283626
0.283684
0.284739
0.286167
0.287073
0.286991
0.286168
0.285211
0.284529
0.284047
0.283401
0.282397
0.281322
0.280834
0.281552
0.283609
0.286521
0.289432
0.29145
0.292029
0.291181
0.28933
0.287071
0.285038
0.283776
0.283602
0.284617
0.286774
0.289884
0.293542
0.29709
0.299747
0.30084
0.300083
0.297708
0.29433
0.290647
0.287258
0.284586
0.282902
0.282397
0.283121
0.284864
0.287185
0.289497
0.291117
0.291417
0.290102
0.28743
0.284188
0.281468
0.280211
0.280733
0.28254
0.284564
0.285762
0.285766
0.28507
0.2846
0.284941
0.285846
0.286453
0.286078
0.284883
0.283796
0.283704
0.284627
0.285686
0.285949
0.285324
0.284588
0.284504
0.284988
0.285276
0.284877
0.284221
0.284188
0.285052
0.286055
0.286226
0.285432
0.284504
0.284339
0.284834
0.285127
0.284769
0.284295
0.284519
0.28547
0.286409
0.286714
0.28659
0.28651
0.286334
0.285576
0.284245
0.283211
0.283244
0.284095
0.284948
0.285504
0.286125
0.286849
0.287074
0.286262
0.284779
0.283672
0.283468
0.283696
0.283761
0.283839
0.284469
0.285518
0.28623
0.286139
0.285606
0.285313
0.285328
0.285033
0.284055
0.283029
0.283185
0.28502
0.287435
0.288366
0.286569
0.282969
0.280219
0.280644
0.284283
0.288756
0.291071
0.289806
0.285922
0.281823
0.279648
0.280088
0.282314
0.284788
0.286236
0.28623
0.285153
0.283844
0.283167
0.283582
0.285075
0.287219
0.289456
0.291229
0.292105
0.291941
0.29068
0.288442
0.285674
0.283046
0.281128
0.280187
0.280186
0.280782
0.281638
0.282406
0.28289
0.283132
0.283341
0.283756
0.28443
0.285379
0.286485
0.287683
0.288927
0.289958
0.290394
0.290008
0.288856
0.287147
0.285342
0.283993
0.283521
0.284037
0.285162
0.286131
0.286086
0.284641
0.282229
0.280073
0.279671
0.281851
0.285962
0.28987
0.291153
0.28884
0.284349
0.280651
0.280113
0.282745
0.286307
0.288168
0.287353
0.285068
0.283405
0.283475
0.284669
0.285594
0.285576
0.285105
0.28493
0.285087
0.285063
0.284724
0.284575
0.284976
0.285496
0.285438
0.284832
0.284454
0.284776
0.285333
0.285392
0.284948
0.28466
0.284879
0.285211
0.285173
0.284886
0.284928
0.284731
0.284893
0.285144
0.285165
0.28501
0.284928
0.28496
0.284948
0.284892
0.284992
0.285252
0.285318
0.284931
0.284437
0.284496
0.285225
0.285877
0.285638
0.284638
0.283908
0.284246
0.285318
0.28603
0.285736
0.284876