# vtk DataFile Version 3.0
PFC-RG simulation results
ASCII
DATASET STRUCTURED_POINTS
DIMENSIONS 256 256 1
ORIGIN 0 0 0
SPACING 1 1 1
POINT_DATA 65536
SCALARS psi double
LOOKUP_TABLE default
0.315849
0.360538
0.302264
0.145387
0.0482533
0.139248
0.334236
0.401502
0.226156
-0.0306586
-0.0961336
0.0993259
0.333735
0.347113
0.140484
-0.0406354
-0.00650197
0.166335
0.252257
0.152439
-0.00994583
-0.054058
0.0637718
0.225121
0.277317
0.170231
-0.0185148
-0.167034
-0.205246
-0.147117
-0.0530351
0.0244192
0.0604244
0.0560973
0.0349493
0.0215132
0.0121727
-0.0175396
-0.0745608
-0.13808
-0.184213
-0.196939
-0.166167
-0.100601
-0.0291335
0.0259589
0.0579838
0.0555235
0.00565786
-0.0761947
-0.148678
-0.18159
-0.171672
-0.12966
-0.0755052
-0.0400337
-0.0456661
-0.0832715
-0.121503
-0.139385
-0.143414
-0.151958
-0.166599
-0.165612
-0.134905
-0.0971797
-0.0889399
-0.11198
-0.131904
-0.121203
-0.0778495
-0.0156124
0.0308181
0.00968801
-0.0942458
-0.220932
-0.289643
-0.277669
-0.217214
-0.138692
-0.0485735
0.0499528
0.139765
0.190841
0.171544
0.0736757
-0.0622025
-0.165931
-0.196543
-0.167138
-0.116768
-0.0856184
-0.101933
-0.150495
-0.161776
-0.072102
0.100445
0.259028
0.306259
0.212717
0.03525
-0.107664
-0.110717
0.022617
0.168866
0.209835
0.157578
0.115667
0.14512
0.218124
0.278072
0.292621
0.25967
0.208557
0.195147
0.251911
0.333323
0.353557
0.297689
0.255913
0.314478
0.442616
0.532511
0.533834
0.49728
0.490046
0.519956
0.55244
0.561067
0.542333
0.508896
0.485589
0.489104
0.499551
0.476534
0.414461
0.353898
0.321683
0.288021
0.209255
0.0967743
0.0163701
0.0223875
0.110887
0.226482
0.287931
0.232139
0.0879686
-0.012559
0.0300301
0.146737
0.177663
0.0618309
-0.125346
-0.276084
-0.31747
-0.221404
-0.0158743
0.218818
0.386272
0.416092
0.295632
0.0778398
-0.151404
-0.320485
-0.392441
-0.367451
-0.289426
-0.232865
-0.246824
-0.303962
-0.314865
-0.203058
0.0149731
0.234087
0.361793
0.390949
0.371357
0.344527
0.312775
0.253242
0.153503
0.0339985
-0.0660994
-0.124564
-0.157264
-0.200458
-0.26345
-0.30403
-0.273101
-0.187902
-0.126322
-0.132083
-0.168411
-0.196025
-0.240793
-0.330085
-0.413976
-0.416647
-0.333257
-0.219288
-0.115765
-0.0301191
0.0393297
0.100769
0.170048
0.245836
0.299743
0.301111
0.235615
0.105928
-0.0608017
-0.213759
-0.31163
-0.350957
-0.352369
-0.33497
-0.314254
-0.303204
-0.295857
-0.26008
-0.159632
0.0138211
0.220231
0.374753
0.386882
0.222741
-0.054807
-0.304962
-0.380898
-0.219554
0.101177
0.387852
0.447545
0.228518
-0.123425
-0.355459
-0.296033
-5.64121e-05
0.283013
0.321675
0.118147
-0.0940022
-0.0903437
0.110042
0.280788
0.26075
0.13544
0.107564
0.230025
0.34473
0.295889
0.140682
0.0874465
0.227727
0.404091
0.362403
0.228004
0.111157
0.12087
0.260599
0.389488
0.349503
0.136835
-0.0706206
-0.0746231
0.134104
0.343814
0.33482
0.115766
-0.0818188
-0.0579096
0.133639
0.259482
0.186232
0.0200309
-0.0433429
0.0537802
0.18871
0.206805
0.0734155
-0.108255
-0.200554
-0.147813
-0.00830995
0.11204
0.15019
0.111692
0.031578
-0.0596444
-0.138897
-0.19229
-0.221613
-0.234313
-0.228641
-0.199228
-0.145547
-0.0665343
0.0305942
0.110421
0.129614
0.0835152
0.00595374
-0.0722671
-0.13666
-0.173218
-0.171747
-0.141298
-0.104004
-0.0793325
-0.0821465
-0.120917
-0.184501
-0.242067
-0.268707
-0.265799
-0.252801
-0.246343
-0.248227
-0.248511
-0.240385
-0.229589
-0.221803
-0.210817
-0.196117
-0.193713
-0.201596
-0.177401
-0.090715
0.0148223
0.055075
-0.000331738
-0.105955
-0.20235
-0.262916
-0.287761
-0.28004
-0.23581
-0.148133
-0.0235937
0.100398
0.16907
0.15323
0.0716344
-0.0273743
-0.0909931
-0.086163
-0.0316021
0.0028253
-0.0408367
-0.144352
-0.225067
-0.204785
-0.064284
0.141617
0.303901
0.324693
0.206724
0.0740734
0.0607369
0.169107
0.277306
0.287669
0.216697
0.142235
0.121166
0.162425
0.230259
0.261208
0.216985
0.140722
0.128599
0.217965
0.330111
0.358418
0.300619
0.264582
0.332235
0.458093
0.535929
0.531658
0.502832
0.505337
0.529572
0.53396
0.507411
0.478652
0.473159
0.475636
0.44516
0.367927
0.279
0.218094
0.178864
0.128903
0.0720325
0.0575036
0.118548
0.222477
0.295151
0.282416
0.183215
0.0535101
-0.00910242
0.0574869
0.176521
0.176518
-0.00201834
-0.217661
-0.296622
-0.196144
0.02315
0.266224
0.424624
0.419923
0.255529
0.00611753
-0.231532
-0.374256
-0.385085
-0.296497
-0.179956
-0.0871854
-0.0395853
-0.0500215
-0.102987
-0.127621
-0.0496658
0.117014
0.264635
0.300252
0.23799
0.16098
0.122168
0.109694
0.0888348
0.0480218
0.00123922
-0.0368569
-0.0620329
-0.073123
-0.0717705
-0.0645386
-0.046462
0.00845087
0.109843
0.210656
0.243156
0.206227
0.173679
0.185181
0.177072
0.0705227
-0.111191
-0.271804
-0.352394
-0.354839
-0.296176
-0.199194
-0.102972
-0.0362503
0.00811185
0.0526356
0.10603
0.162457
0.207179
0.216817
0.176302
0.0990764
0.0147423
-0.0582531
-0.114345
-0.149425
-0.166608
-0.184039
-0.221239
-0.279433
-0.333979
-0.33593
-0.232912
-0.0162534
0.245604
0.429641
0.427206
0.217368
-0.0998608
-0.343104
-0.35597
-0.118304
0.220386
0.425645
0.340239
0.0162283
-0.298828
-0.350118
-0.103559
0.208407
0.303163
0.133258
-0.0670074
-0.0521989
0.149919
0.293697
0.235054
0.0981086
0.0897841
0.223529
0.316342
0.250149
0.13331
0.139972
0.258233
0.344736
0.157918
0.0934165
0.24404
0.441183
0.418762
0.136819
-0.140526
-0.129672
0.154985
0.408055
0.361355
0.0698191
-0.161174
-0.107682
0.143663
0.306901
0.221635
0.0132553
-0.0823405
0.00833966
0.141273
0.146221
0.0111735
-0.134376
-0.162936
-0.0549282
0.101714
0.191717
0.161009
0.0435052
-0.0899975
-0.192987
-0.251512
-0.266341
-0.248147
-0.211668
-0.161228
-0.0943761
-0.022817
0.0314378
0.0619237
0.0725609
0.0525429
-0.00887593
-0.0897446
-0.149941
-0.169558
-0.151591
-0.106672
-0.0561795
-0.0309647
-0.0480356
-0.0971021
-0.154748
-0.200035
-0.215924
-0.192641
-0.13915
-0.0812323
-0.0386611
-0.0109134
0.0110256
0.0254432
0.0189628
-0.0138784
-0.0534888
-0.0704509
-0.0682484
-0.0903129
-0.162605
-0.245012
-0.265795
-0.198725
-0.0865843
0.00567666
0.0423576
0.0238733
-0.0321922
-0.106342
-0.184339
-0.254439
-0.297634
-0.289115
-0.218806
-0.107404
0.000599509
0.0600136
0.0525523
0.00428239
-0.0275565
-0.00148974
0.0680635
0.121425
0.100573
-0.0104715
-0.165156
-0.263756
-0.214985
-0.0225503
0.194195
0.298676
0.265707
0.193946
0.190531
0.265952
0.347295
0.362435
0.29761
0.201131
0.145791
0.170119
0.23955
0.270426
0.211843
0.110611
0.0749194
0.15274
0.259815
0.264495
0.147409
0.0268372
0.00654838
0.0612016
0.104322
0.104053
0.0855165
0.0669638
0.048227
0.0416291
0.0639691
0.0965764
0.0928965
0.0419588
-0.00303149
0.0131864
0.0735218
0.112296
0.109498
0.119969
0.192529
0.291486
0.32684
0.250197
0.103404
-0.0132544
-0.00859893
0.131883
0.302996
0.330637
0.146943
-0.0854496
-0.124862
0.0656212
0.303195
0.421601
0.380711
0.203261
-0.0534795
-0.286556
-0.395105
-0.344382
-0.172037
0.0392761
0.191633
0.22063
0.139412
0.014331
-0.0978726
-0.162705
-0.155132
-0.0908461
-0.0484295
-0.103858
-0.242596
-0.374596
-0.433434
-0.428172
-0.405961
-0.394997
-0.388601
-0.371245
-0.346877
-0.331301
-0.321559
-0.294003
-0.236591
-0.162713
-0.0918595
-0.0378767
-0.016171
-0.0373402
-0.0790954
-0.0889291
-0.0424419
0.017323
0.0291045
-0.017167
-0.0946186
-0.189597
-0.2923
-0.368486
-0.390545
-0.378944
-0.376313
-0.395865
-0.419063
-0.425017
-0.399549
-0.334349
-0.238879
-0.142621
-0.0743589
-0.0454781
-0.050975
-0.0730707
-0.0874912
-0.0790711
-0.0503488
-0.0167816
-0.00656184
-0.0565254
-0.176749
-0.313477
-0.368203
-0.265406
-0.0134561
0.281146
0.460226
0.406977
0.133111
-0.20496
-0.388415
-0.28276
0.0447295
0.345457
0.371551
0.0953249
-0.241953
-0.340021
-0.129049
0.15921
0.238409
0.079751
-0.0710516
-0.00320108
0.203544
0.294551
0.169737
0.00790314
0.0338668
0.229656
0.362026
0.279895
0.091842
0.0169069
0.312149
0.263156
0.278581
0.346403
0.336437
0.161213
-0.0571968
-0.0837139
0.140241
0.384229
0.364237
0.0736386
-0.190117
-0.15242
0.132589
0.347676
0.270799
0.0105545
-0.146384
-0.0677731
0.10274
0.144962
0.0198766
-0.118473
-0.121905
0.00678841
0.14553
0.178217
0.0842847
-0.0672824
-0.18978
-0.242771
-0.23662
-0.195267
-0.137104
-0.0829133
-0.0487971
-0.0285701
-0.00847175
0.00265237
-0.0159637
-0.0616225
-0.111906
-0.153472
-0.179246
-0.174733
-0.13612
-0.0847669
-0.0436465
-0.0194575
-0.0180638
-0.0499939
-0.107916
-0.160172
-0.177802
-0.156495
-0.109683
-0.0533996
-0.00281865
0.0291702
0.0422029
0.0520934
0.0736454
0.0997784
0.105
0.0747512
0.0277062
-0.000614169
0.00067212
0.00265225
-0.0326113
-0.115053
-0.216945
-0.288563
-0.290241
-0.221267
-0.118394
-0.025908
0.0340373
0.0637676
0.0668456
0.0337921
-0.0426407
-0.144547
-0.231748
-0.268689
-0.247216
-0.19046
-0.137712
-0.117936
-0.128872
-0.137674
-0.102306
-0.00328543
0.126779
0.204036
0.150497
-0.0243054
-0.206681
-0.267088
-0.168892
0.00920815
0.145895
0.175697
0.13617
0.122885
0.188489
0.290924
0.345028
0.310164
0.221013
0.154959
0.176777
0.274983
0.341151
0.271886
0.115256
0.0478286
0.156534
0.306584
0.308073
0.161164
0.0306337
0.0223506
0.0908406
0.141472
0.134813
0.0918102
0.0584259
0.0724024
0.125557
0.157993
0.124334
0.0644253
0.0676877
0.156707
0.249294
0.263505
0.221168
0.20369
0.228301
0.223742
0.134531
0.00325808
-0.0692166
-0.0179799
0.134498
0.282793
0.294074
0.123335
-0.0974945
-0.142285
0.0668747
0.32977
0.38034
0.177585
-0.113022
-0.327323
-0.391197
-0.29207
-0.0717741
0.175122
0.348413
0.389896
0.294533
0.107316
-0.0931928
-0.240394
-0.314294
-0.328137
-0.309458
-0.302276
-0.342554
-0.406997
-0.424909
-0.365666
-0.277741
-0.224129
-0.218549
-0.236762
-0.255201
-0.26685
-0.279773
-0.306404
-0.344122
-0.371782
-0.376231
-0.37117
-0.37951
-0.404305
-0.428614
-0.44063
-0.444893
-0.445708
-0.435125
-0.404256
-0.348648
-0.266355
-0.176278
-0.127531
-0.152748
-0.220185
-0.269505
-0.281638
-0.280624
-0.285373
-0.296563
-0.318722
-0.359559
-0.407913
-0.435595
-0.425512
-0.386937
-0.342667
-0.307922
-0.281198
-0.251586
-0.209959
-0.146936
-0.0488141
0.0817666
0.198647
0.227466
0.122784
-0.085974
-0.296105
-0.378665
-0.25449
0.0383924
0.342309
0.464741
0.30878
-0.0370956
-0.334464
-0.36308
-0.105122
0.219438
0.32782
0.128428
-0.18244
-0.301925
-0.128132
0.131879
0.199718
0.0490818
-0.0736729
0.0278135
0.23873
0.285195
0.108547
-0.0412314
0.0634237
0.310233
0.384004
0.185161
-0.0284817
0.30481
0.421691
0.445568
0.290411
0.046033
-0.0882439
0.00994644
0.253373
0.404428
0.297336
0.00830815
-0.198649
-0.121118
0.164414
0.365143
0.277264
-0.000155482
-0.182874
-0.112712
0.0867301
0.17442
0.0692933
-0.0850507
-0.114359
-0.00560319
0.108461
0.106422
-0.0119992
-0.15202
-0.221017
-0.196755
-0.124231
-0.0588305
-0.0218178
-0.0121029
-0.0318791
-0.0774558
-0.125216
-0.153535
-0.168203
-0.184349
-0.196313
-0.188502
-0.160371
-0.119237
-0.0686573
-0.0231572
-0.0102973
-0.0392802
-0.0882721
-0.133563
-0.168372
-0.186751
-0.175826
-0.136641
-0.0956551
-0.0815575
-0.0985296
-0.131162
-0.165616
-0.194857
-0.210714
-0.206185
-0.186451
-0.16851
-0.164358
-0.168584
-0.166821
-0.148859
-0.110258
-0.0558557
-0.0149396
-0.0315935
-0.116394
-0.223552
-0.292981
-0.302412
-0.266013
-0.200489
-0.111458
-0.00823392
0.0834121
0.130908
0.114213
0.0369425
-0.0735151
-0.17524
-0.232589
-0.236714
-0.209374
-0.190522
-0.210429
-0.254873
-0.259829
-0.163549
0.0213707
0.195503
0.245588
0.135805
-0.0602759
-0.205192
-0.196075
-0.0529652
0.0919903
0.125496
0.0694425
0.0349134
0.0862847
0.191958
0.276096
0.274576
0.182635
0.0959628
0.142746
0.308909
0.405608
0.302973
0.129792
0.122336
0.31137
0.499304
0.538442
0.484295
0.461863
0.50271
0.551605
0.562777
0.543514
0.529254
0.539858
0.554044
0.532124
0.473695
0.431472
0.44231
0.46369
0.419407
0.304769
0.196584
0.145686
0.111011
0.033594
-0.060766
-0.0817789
0.0127442
0.157901
0.230996
0.149829
-0.0523162
-0.228531
-0.227797
-0.043771
0.150406
0.151391
-0.065957
-0.319372
-0.407131
-0.276187
-0.0116497
0.259102
0.426316
0.427963
0.276501
0.0475799
-0.171289
-0.319726
-0.37675
-0.362201
-0.318629
-0.280256
-0.264002
-0.273047
-0.278157
-0.213548
-0.045409
0.158199
0.283164
0.291545
0.237444
0.178847
0.127129
0.0744026
0.0193407
-0.0425865
-0.119561
-0.203736
-0.272469
-0.314156
-0.335832
-0.34184
-0.323434
-0.281716
-0.247113
-0.253995
-0.304315
-0.370759
-0.418747
-0.41584
-0.349463
-0.250585
-0.168229
-0.115753
-0.0713327
-0.0223791
0.0241788
0.067235
0.110296
0.134335
0.102231
0.00210381
-0.130475
-0.244024
-0.31343
-0.344872
-0.353221
-0.347085
-0.331945
-0.31565
-0.29957
-0.263617
-0.17317
-0.012383
0.185961
0.341057
0.360424
0.20159
-0.0759522
-0.320959
-0.375857
-0.185204
0.147491
0.404523
0.394934
0.107556
-0.251395
-0.400873
-0.223345
0.107815
0.26864
0.103115
-0.195205
-0.282864
-0.064218
0.19375
0.190955
-0.0254895
-0.125347
0.0596966
0.306802
0.304374
0.073119
-0.0661528
0.0708719
0.29754
0.33521
0.186005
0.320763
0.444092
0.417383
0.172563
-0.0649453
-0.0263962
0.255217
0.452976
0.316001
-0.0385226
-0.254922
-0.120917
0.217717
0.413177
0.276883
-0.038859
-0.221269
-0.120463
0.11786
0.230371
0.119413
-0.0715508
-0.145832
-0.0658826
0.0367959
0.0312084
-0.0776468
-0.182222
-0.195588
-0.119474
-0.0198228
0.0357691
0.02394
-0.0345727
-0.110743
-0.187507
-0.247535
-0.270518
-0.254494
-0.220256
-0.183322
-0.138687
-0.0843291
-0.03879
-0.0200494
-0.0263369
-0.0510914
-0.0950585
-0.149414
-0.1888
-0.196049
-0.177721
-0.148308
-0.117407
-0.0989794
-0.113137
-0.163793
-0.225571
-0.267096
-0.280464
-0.278586
-0.273483
-0.268259
-0.263618
-0.259681
-0.251713
-0.236166
-0.22345
-0.227554
-0.234537
-0.203083
-0.117076
-0.0214888
0.0195413
-0.0129534
-0.0901798
-0.176625
-0.250639
-0.298146
-0.308256
-0.275601
-0.20206
-0.100646
-0.00100165
0.0596424
0.061378
0.0142549
-0.051672
-0.100747
-0.107009
-0.0774755
-0.0601114
-0.106526
-0.213155
-0.305321
-0.290924
-0.138969
0.081709
0.237976
0.230062
0.0850254
-0.0487364
-0.0385134
0.0932409
0.20356
0.198141
0.111738
0.0346915
0.0334781
0.124165
0.239104
0.248342
0.115376
-0.0010034
0.0756517
0.284825
0.391029
0.295141
0.148813
0.136019
0.263034
0.412456
0.500148
0.51998
0.500586
0.475268
0.474365
0.505467
0.538033
0.528837
0.468964
0.40117
0.380981
0.409417
0.415523
0.329992
0.175439
0.0556369
0.0370151
0.069674
0.0624305
0.0111004
-0.000936414
0.0746583
0.180163
0.207578
0.095289
-0.108792
-0.247307
-0.171037
0.0755869
0.241048
0.12638
-0.174242
-0.377474
-0.311219
-0.0372665
0.262828
0.437965
0.425255
0.244666
-0.0204049
-0.258789
-0.38626
-0.386886
-0.306069
-0.207115
-0.13485
-0.103985
-0.103941
-0.114381
-0.116643
-0.0873343
-0.00411282
0.113179
0.190955
0.176019
0.101828
0.0410324
0.0176504
0.00328635
-0.0228373
-0.054094
-0.0878992
-0.133469
-0.182138
-0.202488
-0.176937
-0.121594
-0.0621984
-0.00734492
0.0416436
0.0705969
0.0632461
0.0193859
-0.0552471
-0.159191
-0.273484
-0.354072
-0.369471
-0.327645
-0.256318
-0.178985
-0.114891
-0.07453
-0.0464258
-0.00818533
0.0415594
0.0759616
0.0705482
0.0291055
-0.0264811
-0.0804456
-0.12872
-0.169329
-0.197664
-0.212567
-0.224348
-0.250345
-0.295811
-0.339007
-0.334917
-0.235717
-0.0282031
0.22795
0.408148
0.39622
0.173444
-0.146791
-0.369178
-0.335576
-0.0517168
0.280873
0.392957
0.172172
-0.20527
-0.40639
-0.263524
0.0413772
0.165559
-0.00705971
-0.231685
-0.206963
0.0482432
0.218795
0.0996596
-0.129772
-0.134209
0.13137
0.353034
0.260897
-0.0237406
-0.144241
0.047487
0.332737
0.406918
0.337271
0.308074
0.25345
0.167531
0.151931
0.259321
0.357099
0.254876
-0.0272271
-0.220514
-0.103107
0.221628
0.415245
0.269776
-0.0638234
-0.247203
-0.118509
0.157701
0.289139
0.162235
-0.0724147
-0.192198
-0.13076
-0.0130813
0.0080143
-0.0814273
-0.167914
-0.156773
-0.0648428
0.0218362
0.0390221
-0.0163391
-0.106438
-0.190544
-0.246862
-0.2685
-0.252037
-0.202728
-0.14432
-0.103913
-0.0850988
-0.0715466
-0.058366
-0.06182
-0.0919808
-0.133839
-0.165517
-0.178814
-0.172494
-0.144358
-0.102511
-0.0690854
-0.0614527
-0.0796333
-0.115575
-0.159792
-0.194393
-0.196402
-0.158991
-0.100449
-0.045527
-0.00676615
0.013289
0.0129736
-0.00447806
-0.023232
-0.0287517
-0.0338424
-0.0728112
-0.154736
-0.236385
-0.259696
-0.209279
-0.118836
-0.0327527
0.0201929
0.0279681
-0.00781
-0.0743603
-0.155811
-0.236272
-0.294668
-0.30951
-0.274994
-0.206282
-0.127904
-0.0650641
-0.039068
-0.0514421
-0.0699594
-0.0492084
0.0196985
0.0842345
0.0674472
-0.0591837
-0.232623
-0.33151
-0.268714
-0.0717367
0.124739
0.193119
0.135438
0.0699712
0.0912031
0.180224
0.257519
0.263234
0.17821
0.0487987
0.000752815
0.117961
0.284091
0.279022
0.0785111
-0.0788519
0.00759524
0.24641
0.377962
0.276995
0.0579438
-0.0792419
-0.0445859
0.0837957
0.158935
0.115828
0.0239324
-0.00280553
0.0618608
0.127415
0.099052
0.000121694
-0.0494987
0.0155228
0.109753
0.0950854
-0.0364967
-0.138504
-0.0899435
0.0523481
0.135094
0.110358
0.0773951
0.115266
0.162635
0.120839
-0.00348199
-0.121031
-0.149256
-0.0344754
0.204212
0.387927
0.286733
-0.0683396
-0.327693
-0.220094
0.132554
0.403151
0.412375
0.208391
-0.0692821
-0.296551
-0.390713
-0.327518
-0.157431
0.020836
0.122141
0.120549
0.0467543
-0.0476515
-0.121687
-0.157154
-0.159914
-0.151907
-0.158065
-0.199082
-0.280051
-0.372297
-0.426187
-0.42095
-0.386346
-0.363536
-0.361271
-0.363463
-0.362499
-0.36118
-0.3493
-0.306816
-0.234535
-0.161486
-0.115736
-0.0999115
-0.100369
-0.105436
-0.105408
-0.0906524
-0.0694921
-0.0760346
-0.136011
-0.232408
-0.322396
-0.378631
-0.399307
-0.395433
-0.384887
-0.384979
-0.397809
-0.407218
-0.394787
-0.355118
-0.296134
-0.231459
-0.175481
-0.140028
-0.128547
-0.133075
-0.139066
-0.134896
-0.119057
-0.100891
-0.0988903
-0.137199
-0.226806
-0.333227
-0.372156
-0.26385
-0.00964466
0.280133
0.438268
0.347077
0.0386912
-0.290086
-0.398797
-0.199312
0.139766
0.31149
0.150919
-0.18839
-0.379834
-0.265926
-0.0192845
0.0679767
-0.0764157
-0.230028
-0.157157
0.0852401
0.206122
0.0534191
-0.164751
-0.133224
0.146394
0.338094
0.202671
-0.0823344
-0.140284
0.120378
0.381156
0.35139
0.181929
0.141881
0.263296
0.409059
0.39083
0.160606
-0.121164
-0.215129
-0.0251854
0.279798
0.403071
0.214053
-0.109346
-0.252322
-0.0844668
0.207484
0.325967
0.170918
-0.089314
-0.222217
-0.157002
-0.0165298
0.0356209
-0.0390493
-0.137021
-0.146261
-0.0687793
0.000757585
-0.00962189
-0.0874707
-0.174604
-0.226494
-0.231426
-0.200793
-0.153022
-0.104288
-0.0701357
-0.0646394
-0.0888408
-0.125013
-0.152245
-0.166677
-0.178245
-0.188943
-0.186149
-0.161126
-0.12227
-0.0837476
-0.0533283
-0.0386639
-0.0506416
-0.0889671
-0.134644
-0.165138
-0.168897
-0.143419
-0.0939202
-0.0375196
0.00614929
0.0326794
0.0519023
0.0692137
0.0763626
0.0644077
0.0415422
0.0279482
0.0285662
0.0199877
-0.0269572
-0.114896
-0.214263
-0.284491
-0.297627
-0.249819
-0.161997
-0.0682954
0.00498907
0.0487474
0.0593653
0.0290793
-0.0422771
-0.135381
-0.220966
-0.27534
-0.285471
-0.253914
-0.207316
-0.184363
-0.198565
-0.214761
-0.174988
-0.05783
0.0852065
0.156484
0.0875477
-0.0942498
-0.268039
-0.309193
-0.197271
-0.0310404
0.0697857
0.0693172
0.0223972
0.0105267
0.083116
0.212373
0.281366
0.187376
0.00812553
-0.0280579
0.168189
0.380568
0.339974
0.0808089
-0.0945763
0.0125793
0.276438
0.414518
0.307124
0.0979422
0.000527586
0.0622376
0.153865
0.157438
0.0960574
0.0714326
0.117431
0.158473
0.122511
0.0536509
0.0597384
0.150766
0.199624
0.113903
-0.0100199
0.00456763
0.165861
0.278647
0.199409
0.0321518
-0.0203551
0.04876
0.048012
-0.10212
-0.23565
-0.182285
0.0170924
0.204704
0.270369
0.158739
-0.106425
-0.320723
-0.231297
0.116082
0.36573
0.274047
-0.0437875
-0.318447
-0.397304
-0.285274
-0.0613693
0.174853
0.326721
0.336317
0.216254
0.0360488
-0.130199
-0.243966
-0.301589
-0.316007
-0.310593
-0.315434
-0.347684
-0.393503
-0.418448
-0.398855
-0.344712
-0.292467
-0.27285
-0.28583
-0.308632
-0.323429
-0.331125
-0.339433
-0.347699
-0.350896
-0.351401
-0.358346
-0.376036
-0.399211
-0.419708
-0.432928
-0.433746
-0.410663
-0.356828
-0.286102
-0.226943
-0.199333
-0.206431
-0.240709
-0.285206
-0.318441
-0.329804
-0.328197
-0.331777
-0.351423
-0.38362
-0.414593
-0.429478
-0.420737
-0.392314
-0.356033
-0.322479
-0.294641
-0.268416
-0.236173
-0.188484
-0.115476
-0.0165003
0.0817702
0.120868
0.0455066
-0.135406
-0.323411
-0.381987
-0.233395
0.0683633
0.345165
0.40016
0.170378
-0.190401
-0.402589
-0.296195
0.010306
0.201852
0.0804958
-0.220645
-0.378195
-0.239839
0.00613994
0.0553864
-0.136644
-0.282491
-0.129039
0.186526
0.280461
0.0276341
-0.237367
-0.146261
0.211912
0.404446
0.215597
-0.0851817
-0.115736
0.124777
0.390877
0.237999
0.197071
0.310345
0.380336
0.213091
-0.0947836
-0.23312
-0.0399199
0.29361
0.413362
0.18665
-0.155423
-0.269269
-0.0514293
0.26588
0.363293
0.162119
-0.12552
-0.245228
-0.142901
0.0287557
0.0922925
0.00718581
-0.12387
-0.176086
-0.126615
-0.0612008
-0.0654276
-0.133798
-0.197535
-0.210664
-0.178715
-0.12805
-0.0823783
-0.0615116
-0.0773805
-0.124879
-0.182538
-0.225267
-0.239007
-0.226452
-0.200473
-0.171998
-0.142832
-0.110251
-0.0787971
-0.0624026
-0.0701817
-0.0960565
-0.128383
-0.161033
-0.187179
-0.19416
-0.176399
-0.145804
-0.121462
-0.11622
-0.134058
-0.168468
-0.202613
-0.2201
-0.217717
-0.205489
-0.196229
-0.194021
-0.190074
-0.170833
-0.130575
-0.0800088
-0.0459928
-0.0574237
-0.120796
-0.20832
-0.277667
-0.303906
-0.287948
-0.238562
-0.161055
-0.0670542
0.0178076
0.0669569
0.0685609
0.0237692
-0.0567836
-0.146697
-0.209145
-0.224315
-0.210572
-0.211357
-0.253489
-0.311537
-0.317188
-0.216758
-0.0320614
0.133676
0.166432
0.0403531
-0.147204
-0.253995
-0.215899
-0.0890598
0.0141956
0.0182616
-0.0585182
-0.107531
-0.0205048
0.168391
0.265244
0.137072
-0.0696754
-0.0684381
0.188996
0.421993
0.370608
0.11194
-0.0531617
0.0462892
0.297518
0.479954
0.50535
0.45318
0.432254
0.470139
0.5269
0.561608
0.566121
0.551739
0.527283
0.504947
0.507639
0.537702
0.542617
0.461122
0.325905
0.262291
0.333003
0.418106
0.328898
0.0569884
-0.175531
-0.178606
-0.0515374
-0.045597
-0.188384
-0.248451
-0.0984903
0.0923514
0.0993082
-0.0876168
-0.311551
-0.407071
-0.271521
0.0360359
0.247014
0.132614
-0.196647
-0.40925
-0.326389
-0.0463646
0.234183
0.387659
0.377558
0.231194
0.0184727
-0.179605
-0.307472
-0.355436
-0.351586
-0.330274
-0.308787
-0.292043
-0.28187
-0.267486
-0.220213
-0.121906
0.0014846
0.0926125
0.113595
0.0761451
0.0217976
-0.0187161
-0.0442281
-0.0718201
-0.117237
-0.184093
-0.261849
-0.330441
-0.372217
-0.38333
-0.373163
-0.35514
-0.343454
-0.351204
-0.37981
-0.410309
-0.413883
-0.374601
-0.301006
-0.220027
-0.158544
-0.125341
-0.108005
-0.0877159
-0.0574507
-0.0273344
-0.0166223
-0.0405255
-0.1004
-0.181425
-0.259953
-0.317112
-0.34727
-0.355945
-0.352414
-0.34343
-0.33063
-0.310819
-0.273724
-0.197786
-0.0623401
0.116057
0.261162
0.274758
0.116352
-0.145645
-0.356931
-0.366179
-0.136559
0.191189
0.364052
0.216325
-0.146988
-0.407389
-0.342836
-0.0681687
0.0879195
-0.0470688
-0.292479
-0.336723
-0.122311
0.07833
0.0079424
-0.226269
-0.270371
0.00755571
0.307947
0.264845
-0.0639981
-0.249043
-0.0391072
0.320313
0.406749
0.144663
-0.130176
-0.106207
0.444753
0.422259
0.33439
0.234641
0.113844
-0.0261582
-0.0823883
0.0421329
0.259728
0.331738
0.131064
-0.16907
-0.2552
-0.0246206
0.290761
0.370727
0.144218
-0.154598
-0.253427
-0.109356
0.0926274
0.154239
0.0405174
-0.130873
-0.221939
-0.192398
-0.116732
-0.0934907
-0.13956
-0.187324
-0.179494
-0.129523
-0.0846859
-0.0703495
-0.0876026
-0.134361
-0.202216
-0.264207
-0.287965
-0.263476
-0.209949
-0.155544
-0.116046
-0.0929073
-0.0831728
-0.0855085
-0.100575
-0.128664
-0.164119
-0.19367
-0.205933
-0.200076
-0.180849
-0.152932
-0.12716
-0.121981
-0.148268
-0.197002
-0.246283
-0.277742
-0.28743
-0.28472
-0.280021
-0.274348
-0.263723
-0.250639
-0.244781
-0.249605
-0.249082
-0.215328
-0.139518
-0.0522217
-0.00138841
-0.0107811
-0.0682126
-0.146782
-0.223967
-0.282751
-0.309015
-0.295691
-0.245176
-0.167478
-0.0807592
-0.0120419
0.0132783
-0.0102904
-0.0604485
-0.0979296
-0.0941992
-0.0610716
-0.0517126
-0.115674
-0.240551
-0.342025
-0.324645
-0.168984
0.0330488
0.144104
0.100726
-0.0348787
-0.138307
-0.126054
-0.0124246
0.0989335
0.0886896
-0.0534906
-0.169332
-0.0807799
0.158912
0.2703
0.0979556
-0.148374
-0.142698
0.137745
0.393225
0.373712
0.138255
-0.0568861
-0.0304377
0.182525
0.401388
0.479064
0.427658
0.378352
0.420871
0.505578
0.525243
0.46186
0.404387
0.426652
0.487433
0.478615
0.361817
0.226126
0.188884
0.250481
0.291973
0.209044
0.0156507
-0.164759
-0.206965
-0.106838
-0.00424687
-0.0304266
-0.127042
-0.134228
-0.0485498
-0.0385068
-0.186198
-0.356082
-0.366848
-0.182327
0.0760678
0.204406
0.062324
-0.241084
-0.393684
-0.214791
0.144028
0.393319
0.393719
0.202923
-0.0514545
-0.265148
-0.379185
-0.387221
-0.328246
-0.2539
-0.199255
-0.1741
-0.168323
-0.166598
-0.159474
-0.138319
-0.0923923
-0.0265548
0.027538
0.0372135
0.00377868
-0.0402997
-0.0668675
-0.0751375
-0.082538
-0.105068
-0.148606
-0.20603
-0.255192
-0.270193
-0.242807
-0.190546
-0.138667
-0.099529
-0.0760412
-0.0778601
-0.119497
-0.198731
-0.288579
-0.354193
-0.373615
-0.345891
-0.288368
-0.226237
-0.17726
-0.143572
-0.116665
-0.0894861
-0.0636739
-0.0475234
-0.04956
-0.0723194
-0.109587
-0.149985
-0.184579
-0.211137
-0.231934
-0.249089
-0.264448
-0.283894
-0.313779
-0.343527
-0.333831
-0.236722
-0.0427569
0.18561
0.331587
0.290515
0.0516821
-0.254526
-0.408942
-0.273847
0.0468371
0.257039
0.146315
-0.178322
-0.398752
-0.332331
-0.116465
-0.0286784
-0.154487
-0.299327
-0.245464
-0.0308423
0.0935689
-0.0208508
-0.217218
-0.208285
0.054632
0.29171
0.228401
-0.0535695
-0.202624
-0.0326052
0.252783
0.322655
0.121018
-0.0819062
0.4385
0.49344
0.369922
0.120569
-0.0715485
-0.0525575
0.151634
0.336605
0.301004
0.0425875
-0.222993
-0.244388
0.0158627
0.310743
0.347247
0.0936973
-0.193608
-0.247385
-0.0555305
0.161709
0.199347
0.0480517
-0.148692
-0.249155
-0.217477
-0.12592
-0.0775272
-0.109624
-0.166335
-0.174413
-0.129408
-0.0877469
-0.0914944
-0.132228
-0.182524
-0.226737
-0.252944
-0.244344
-0.197455
-0.137085
-0.0977214
-0.0925138
-0.108917
-0.130101
-0.15036
-0.170467
-0.188048
-0.197079
-0.191956
-0.170386
-0.13713
-0.104604
-0.0847868
-0.0821245
-0.0966754
-0.126401
-0.161251
-0.181841
-0.170627
-0.125842
-0.0661472
-0.0201257
-0.00410215
-0.00977376
-0.0163516
-0.0150227
-0.0213921
-0.0606931
-0.13618
-0.21341
-0.245286
-0.213388
-0.139045
-0.0594805
-0.00241436
0.0193496
0.00294843
-0.0479583
-0.122945
-0.204778
-0.272305
-0.306585
-0.298611
-0.25316
-0.187955
-0.130033
-0.10417
-0.110409
-0.11322
-0.070464
0.0157291
0.0823959
0.0525641
-0.0888724
-0.26085
-0.340458
-0.267892
-0.0987872
0.0463512
0.0797832
0.00604706
-0.0838004
-0.0745818
0.0640731
0.204443
0.159668
-0.0728629
-0.230476
-0.0814161
0.233572
0.336192
0.0995929
-0.187772
-0.193768
0.079556
0.349948
0.371843
0.150046
-0.0964328
-0.155381
-0.0280381
0.0980225
0.0893791
0.0145432
0.00603924
0.0575663
0.0592428
-0.00703292
-0.0299708
0.0505812
0.121455
0.0382733
-0.142609
-0.193993
-0.0299805
0.132699
0.055078
-0.186318
-0.302312
-0.166649
0.0488684
0.120447
0.0199863
-0.114763
-0.150719
-0.100926
-0.102088
-0.219976
-0.334086
-0.276324
-0.0456451
0.179718
0.216817
0.022909
-0.259605
-0.372306
-0.170108
0.186283
0.373842
0.248929
-0.0491067
-0.299051
-0.389596
-0.334707
-0.207191
-0.086309
-0.0232751
-0.0241944
-0.063954
-0.113777
-0.154475
-0.179367
-0.194862
-0.212239
-0.238029
-0.274764
-0.321874
-0.368479
-0.395131
-0.392063
-0.371358
-0.355126
-0.354623
-0.365474
-0.377132
-0.377343
-0.352479
-0.297547
-0.228464
-0.174515
-0.152388
-0.151523
-0.148705
-0.135242
-0.12401
-0.133291
-0.172198
-0.237231
-0.312396
-0.37376
-0.404224
-0.405555
-0.394241
-0.386078
-0.385347
-0.386561
-0.380969
-0.361597
-0.327195
-0.284135
-0.242593
-0.210072
-0.188954
-0.177874
-0.17357
-0.171893
-0.169233
-0.166889
-0.176809
-0.218018
-0.29449
-0.3709
-0.377809
-0.254853
-0.0102463
0.244745
0.337783
0.168101
-0.164562
-0.398601
-0.342903
-0.0789686
0.110714
0.0344885
-0.215275
-0.377106
-0.30834
-0.131249
-0.0753537
-0.195295
-0.305228
-0.210628
0.0364289
0.166668
0.00987318
-0.249302
-0.254043
0.0671457
0.361853
0.266977
-0.11051
-0.304809
-0.0764731
0.300163
0.395773
0.152806
0.33098
0.327504
0.258245
0.112704
0.0175779
0.0945856
0.255942
0.263188
0.0315851
-0.231964
-0.251814
0.0110276
0.301013
0.321652
0.0519182
-0.231042
-0.250007
-0.0110894
0.225289
0.233573
0.034468
-0.181488
-0.262037
-0.198192
-0.0861539
-0.0323266
-0.0737275
-0.156701
-0.198285
-0.173374
-0.130343
-0.12561
-0.162402
-0.202337
-0.215946
-0.200998
-0.165536
-0.119749
-0.0847391
-0.0860799
-0.1276
-0.18255
-0.218978
-0.227287
-0.218028
-0.201314
-0.17779
-0.146446
-0.111737
-0.0812648
-0.0625047
-0.0621836
-0.082245
-0.115176
-0.14672
-0.163111
-0.156314
-0.126596
-0.0811047
-0.0292467
0.0184332
0.0500104
0.0586052
0.0495642
0.0378796
0.0362718
0.0414995
0.0319405
-0.0150376
-0.0999157
-0.196591
-0.269771
-0.294936
-0.266909
-0.197997
-0.111208
-0.0309798
0.0243245
0.0441965
0.0248293
-0.030922
-0.111267
-0.195243
-0.257246
-0.277125
-0.255573
-0.222245
-0.216361
-0.245032
-0.264101
-0.213809
-0.0826907
0.0623687
0.118109
0.0321862
-0.142016
-0.282557
-0.297239
-0.188499
-0.0440153
0.021363
-0.0446166
-0.155783
-0.140324
0.0526888
0.227419
0.144539
-0.132097
-0.251079
-0.0211572
0.316509
0.389588
0.14116
-0.149992
-0.197617
0.0331004
0.324227
0.412955
0.248076
0.0314302
-0.0283175
0.05584
0.130092
0.129676
0.112162
0.111482
0.0936411
0.0600403
0.0786824
0.162533
0.196836
0.0804744
-0.0774339
-0.0434846
0.185192
0.291762
0.0671284
-0.245755
-0.251691
0.0556238
0.280834
0.154887
-0.157665
-0.329077
-0.258422
-0.137791
-0.17318
-0.31026
-0.322404
-0.126345
0.0992838
0.12456
-0.0805088
-0.333553
-0.404195
-0.201842
0.115936
0.253836
0.0793696
-0.233351
-0.407488
-0.338016
-0.123633
0.0850152
0.193068
0.175771
0.0672197
-0.0682339
-0.180509
-0.253404
-0.291784
-0.308348
-0.319546
-0.338157
-0.365348
-0.392135
-0.405865
-0.396566
-0.365871
-0.331335
-0.314193
-0.320711
-0.338863
-0.352964
-0.356897
-0.35287
-0.344444
-0.335278
-0.332668
-0.344554
-0.370265
-0.397012
-0.408859
-0.397861
-0.364766
-0.315704
-0.263643
-0.229086
-0.22824
-0.258248
-0.298965
-0.330113
-0.345369
-0.3506
-0.354659
-0.364097
-0.38127
-0.401838
-0.415622
-0.413989
-0.39624
-0.368263
-0.336968
-0.306769
-0.278858
-0.250977
-0.216462
-0.166598
-0.10184
-0.0442528
-0.0343869