# vtk DataFile Version 3.0
PFC-RG simulation results
ASCII
DATASET STRUCTURED_POINTS
DIMENSIONS 256 256 1
ORIGIN 0 0 0
SPACING 1 1 1
POINT_DATA 65536
SCALARS psi double
LOOKUP_TABLE default
0.285001
0.285
0.285
0.285002
0.285002
0.284999
0.284995
0.284997
0.285004
0.285008
0.285004
0.284995
0.284991
0.284997
0.285006
0.285009
0.285003
0.284995
0.284995
0.285001
0.285006
0.285002
0.284991
0.284986
0.284995
0.285014
0.285028
0.285023
0.285001
0.284975
0.284962
0.284967
0.284985
0.285004
0.285018
0.285029
0.285039
0.285051
0.285058
0.28505
0.285021
0.28497
0.284913
0.284866
0.284844
0.284851
0.284882
0.284925
0.284965
0.284992
0.285004
0.285008
0.285015
0.285033
0.285063
0.285101
0.285144
0.285185
0.285217
0.285229
0.285222
0.285205
0.28519
0.285184
0.285184
0.285191
0.285207
0.285231
0.285253
0.285256
0.285231
0.285182
0.285123
0.285065
0.285013
0.284969
0.284944
0.284944
0.284964
0.284987
0.284988
0.284958
0.284908
0.284859
0.284832
0.28484
0.284881
0.284947
0.285021
0.285083
0.285111
0.285096
0.285046
0.284988
0.284949
0.284942
0.284962
0.284991
0.285012
0.285026
0.285038
0.285051
0.285057
0.285042
0.285002
0.28495
0.284907
0.284893
0.284906
0.284937
0.284972
0.285011
0.285053
0.285094
0.285119
0.285114
0.285079
0.285031
0.284989
0.284968
0.284972
0.285009
0.28509
0.285219
0.285381
0.28554
0.285661
0.285731
0.285753
0.285727
0.285641
0.285491
0.285297
0.285096
0.284925
0.284808
0.284753
0.284759
0.284816
0.284899
0.284979
0.285027
0.285043
0.285049
0.285063
0.285077
0.285058
0.284985
0.284874
0.284789
0.284795
0.28491
0.285079
0.285203
0.285203
0.285081
0.284915
0.284811
0.284833
0.284961
0.285115
0.2852
0.285172
0.285055
0.284923
0.284848
0.284861
0.284938
0.285024
0.285072
0.285066
0.285022
0.284968
0.284925
0.284904
0.284906
0.284934
0.284985
0.285047
0.285093
0.285103
0.285069
0.285003
0.284924
0.284844
0.284776
0.28473
0.284717
0.284737
0.284774
0.284811
0.284838
0.284859
0.284885
0.284922
0.284969
0.285019
0.285066
0.285106
0.285133
0.28515
0.285161
0.285167
0.285165
0.285147
0.285106
0.285044
0.284973
0.284908
0.284869
0.284866
0.284902
0.284966
0.285031
0.28507
0.285059
0.285001
0.284921
0.284862
0.284863
0.284938
0.285058
0.285166
0.285199
0.285131
0.284993
0.284861
0.28481
0.284869
0.284999
0.285115
0.285146
0.285082
0.284976
0.284906
0.284912
0.284976
0.285042
0.285062
0.285032
0.284987
0.284964
0.284976
0.285002
0.285017
0.285013
0.285
0.284994
0.284995
0.284999
0.285
0.285001
0.285003
0.285003
0.285
0.284996
0.284997
0.285001
0.285005
0.285004
0.284998
0.284993
0.284996
0.285005
0.285009
0.285003
0.284992
0.284989
0.284997
0.285009
0.285012
0.285002
0.284991
0.284991
0.285
0.285007
0.285003
0.284993
0.284991
0.285002
0.285018
0.285023
0.285007
0.284981
0.284961
0.284964
0.284989
0.28502
0.28504
0.285044
0.285035
0.285024
0.285013
0.284997
0.28497
0.284932
0.284894
0.284873
0.284883
0.28493
0.285006
0.285091
0.285165
0.285214
0.285236
0.285236
0.285221
0.285199
0.285181
0.285173
0.28518
0.285205
0.285248
0.28531
0.285394
0.285496
0.285605
0.285707
0.285791
0.285848
0.285873
0.285863
0.285819
0.285747
0.285661
0.285571
0.285484
0.285405
0.285336
0.285283
0.285245
0.285216
0.28519
0.285172
0.285169
0.285182
0.285201
0.285207
0.285182
0.285121
0.285035
0.284944
0.28487
0.284834
0.284846
0.284901
0.28498
0.285049
0.285081
0.28507
0.285032
0.284993
0.284973
0.284971
0.284976
0.284976
0.284976
0.284989
0.285023
0.285065
0.285092
0.285086
0.28505
0.285004
0.284965
0.284938
0.284913
0.284883
0.284854
0.284842
0.284855
0.284887
0.284931
0.284986
0.285059
0.285143
0.285217
0.285248
0.285219
0.285139
0.285035
0.284934
0.284846
0.284778
0.284734
0.284708
0.284689
0.284665
0.284635
0.284603
0.284584
0.284589
0.284617
0.284663
0.28472
0.284776
0.284819
0.28485
0.284884
0.284928
0.28497
0.284979
0.28494
0.284883
0.28487
0.284944
0.285085
0.285212
0.285235
0.285124
0.28494
0.284798
0.284788
0.284916
0.285099
0.285222
0.28521
0.285077
0.284905
0.284792
0.284794
0.284894
0.285026
0.285115
0.285123
0.285063
0.284982
0.284924
0.284915
0.284952
0.28502
0.2851
0.285174
0.285224
0.285229
0.285182
0.285093
0.284989
0.2849
0.284854
0.284859
0.284913
0.285003
0.285121
0.28525
0.285373
0.285475
0.285542
0.285569
0.285549
0.285477
0.28536
0.285219
0.285075
0.28495
0.284859
0.284813
0.284822
0.284885
0.284986
0.285097
0.285188
0.28524
0.285245
0.2852
0.285119
0.285024
0.284947
0.284914
0.284936
0.285002
0.285078
0.285122
0.285099
0.285009
0.284887
0.284798
0.284797
0.284901
0.285063
0.285199
0.28523
0.285136
0.284971
0.284835
0.284809
0.284901
0.285041
0.285133
0.285123
0.285034
0.28494
0.28491
0.28495
0.285016
0.285051
0.285038
0.285002
0.284977
0.284978
0.284994
0.285008
0.285011
0.285006
0.284999
0.284994
0.284994
0.284999
0.285004
0.285005
0.285
0.284996
0.284995
0.285001
0.285004
0.285001
0.284995
0.284996
0.285003
0.285008
0.285003
0.284992
0.284989
0.284998
0.285011
0.285013
0.285001
0.284988
0.284988
0.285
0.28501
0.285007
0.284996
0.284992
0.285002
0.285015
0.285014
0.284995
0.284971
0.284964
0.284985
0.285021
0.285049
0.285051
0.285029
0.284997
0.284972
0.284958
0.284951
0.284943
0.284936
0.284941
0.284972
0.285029
0.285101
0.285165
0.285201
0.285197
0.285155
0.285091
0.285027
0.28498
0.284955
0.284946
0.28494
0.284926
0.284898
0.284855
0.2848
0.28474
0.284687
0.284652
0.284635
0.284628
0.284624
0.284621
0.284617
0.284609
0.284598
0.284587
0.284589
0.284614
0.284666
0.28474
0.284821
0.284899
0.284967
0.285014
0.285031
0.285018
0.284993
0.284979
0.284997
0.285051
0.285124
0.28519
0.285224
0.285208
0.285143
0.285046
0.284949
0.284884
0.284873
0.284913
0.284975
0.285026
0.285043
0.285032
0.285012
0.285004
0.285005
0.285001
0.284981
0.284952
0.284937
0.284954
0.285002
0.285053
0.285083
0.285082
0.285063
0.285042
0.28502
0.28499
0.284948
0.284909
0.284893
0.284909
0.284947
0.284988
0.285023
0.285049
0.285059
0.285036
0.284964
0.284844
0.284701
0.284566
0.284463
0.2844
0.284377
0.284403
0.284488
0.284634
0.284815
0.284997
0.285149
0.285248
0.285285
0.285265
0.285199
0.285107
0.285021
0.284967
0.284954
0.284965
0.284968
0.28495
0.284934
0.284962
0.285052
0.285164
0.285215
0.285142
0.284969
0.2848
0.284749
0.284859
0.285061
0.285227
0.285248
0.285113
0.284905
0.28475
0.284736
0.284859
0.285042
0.285182
0.285214
0.285141
0.28502
0.284923
0.284895
0.284935
0.285013
0.285088
0.28513
0.285131
0.285092
0.285024
0.284945
0.284881
0.284856
0.284883
0.284956
0.285052
0.285151
0.285234
0.28529
0.28531
0.285297
0.285263
0.285224
0.285192
0.285169
0.285145
0.285109
0.28506
0.285004
0.28495
0.284903
0.284864
0.284832
0.284805
0.284786
0.284785
0.284808
0.284862
0.284944
0.28504
0.285123
0.285169
0.285161
0.285102
0.285014
0.284934
0.284902
0.284939
0.285036
0.285147
0.285207
0.285171
0.285037
0.284863
0.284741
0.284745
0.284883
0.285084
0.285231
0.285239
0.285108
0.284927
0.284814
0.284835
0.284958
0.285085
0.285128
0.285075
0.284983
0.284927
0.284939
0.284991
0.285034
0.285039
0.285013
0.284986
0.284979
0.284991
0.285005
0.285009
0.285004
0.284998
0.284997
0.284999
0.285
0.284999
0.284999
0.285002
0.285
0.285
0.284999
0.284996
0.284998
0.285004
0.285008
0.285001
0.284991
0.284989
0.285001
0.285014
0.285013
0.284997
0.284983
0.284987
0.285004
0.285016
0.285011
0.284996
0.284989
0.284998
0.28501
0.285008
0.28499
0.284973
0.284978
0.285008
0.285043
0.285053
0.28503
0.284986
0.284948
0.284935
0.284947
0.284969
0.284991
0.28501
0.285037
0.285075
0.28512
0.285151
0.285146
0.285094
0.285001
0.284891
0.28479
0.284722
0.284693
0.2847
0.28473
0.284768
0.284798
0.284811
0.284802
0.28477
0.284716
0.284643
0.284552
0.284448
0.284338
0.284235
0.284151
0.284093
0.284067
0.284075
0.284114
0.284176
0.284256
0.284345
0.284436
0.284519
0.284594
0.28466
0.284716
0.284763
0.284797
0.284808
0.284794
0.284762
0.284729
0.284722
0.28476
0.284846
0.284965
0.285089
0.285181
0.285212
0.285175
0.285089
0.284994
0.284933
0.284923
0.284953
0.28499
0.285009
0.285005
0.284998
0.285006
0.285029
0.285043
0.285027
0.28498
0.284931
0.284912
0.284931
0.284972
0.285006
0.285026
0.285042
0.285068
0.285104
0.28513
0.285133
0.285116
0.285089
0.285056
0.285004
0.284922
0.284825
0.284748
0.284727
0.284769
0.284852
0.28495
0.285048
0.285143
0.28522
0.285265
0.285283
0.28529
0.285304
0.285327
0.285347
0.285351
0.28534
0.285317
0.285282
0.285234
0.285183
0.285146
0.285128
0.285113
0.28508
0.285029
0.284991
0.285003
0.285065
0.285123
0.285106
0.284988
0.284829
0.284743
0.28481
0.285008
0.285213
0.285286
0.285171
0.284938
0.284736
0.284689
0.284822
0.285052
0.285246
0.285302
0.285208
0.285033
0.284879
0.284818
0.284864
0.28497
0.285071
0.285115
0.285087
0.285001
0.284891
0.284789
0.284724
0.284713
0.284764
0.284866
0.284991
0.285101
0.285162
0.28516
0.2851
0.284996
0.284864
0.284719
0.28458
0.284463
0.284386
0.284358
0.284385
0.284468
0.284599
0.28476
0.284925
0.285069
0.285171
0.285218
0.285202
0.285123
0.285
0.284866
0.284755
0.284695
0.2847
0.284766
0.284876
0.284996
0.285085
0.285108
0.285056
0.284955
0.284858
0.284825
0.284891
0.285042
0.285208
0.285298
0.285246
0.285062
0.284836
0.284694
0.284721
0.284902
0.285126
0.285254
0.285213
0.285046
0.284878
0.284819
0.284892
0.285021
0.285106
0.285095
0.285019
0.28495
0.284939
0.284977
0.28502
0.285031
0.285014
0.284994
0.284989
0.284994
0.284998
0.285001
0.285003
0.285006
0.285003
0.284996
0.284992
0.284998
0.285007
0.285005
0.285001
0.284995
0.284995
0.285002
0.285008
0.285004
0.284992
0.284988
0.285
0.285015
0.285014
0.284995
0.28498
0.284986
0.285008
0.285022
0.285013
0.284992
0.284982
0.284993
0.285009
0.28501
0.284993
0.284981
0.284991
0.285022
0.285045
0.285035
0.284993
0.284946
0.284926
0.284947
0.284993
0.285037
0.285062
0.285068
0.285069
0.28507
0.285064
0.285035
0.284974
0.284888
0.284802
0.284747
0.284744
0.284796
0.284884
0.284979
0.285055
0.285101
0.285119
0.285123
0.285131
0.285155
0.285202
0.28527
0.28535
0.285429
0.285493
0.285542
0.285577
0.285602
0.28562
0.285633
0.285641
0.285643
0.285634
0.285604
0.285547
0.285461
0.285355
0.285243
0.28514
0.285059
0.285015
0.285011
0.285036
0.285065
0.285067
0.285023
0.284936
0.284829
0.284739
0.284703
0.28474
0.284842
0.284976
0.285091
0.285146
0.285129
0.285067
0.285003
0.284973
0.28498
0.285
0.285003
0.284984
0.284965
0.284974
0.285015
0.28506
0.285073
0.28504
0.284984
0.284941
0.284933
0.284947
0.284961
0.284967
0.28498
0.285014
0.285061
0.285093
0.285092
0.285065
0.285034
0.285007
0.284978
0.284939
0.284911
0.284927
0.285001
0.285114
0.285236
0.285345
0.285434
0.2855
0.285528
0.285498
0.285404
0.285262
0.285098
0.284934
0.284796
0.284707
0.284684
0.284719
0.284794
0.284885
0.284973
0.285037
0.285059
0.28504
0.285012
0.285015
0.285051
0.285072
0.285022
0.284903
0.284795
0.284801
0.284953
0.285167
0.285295
0.285234
0.285006
0.284757
0.284654
0.284769
0.285033
0.285284
0.285376
0.285267
0.285031
0.284804
0.284701
0.284751
0.284903
0.28506
0.285142
0.285123
0.285029
0.284916
0.284837
0.28482
0.284866
0.284957
0.285064
0.285154
0.285197
0.285179
0.285102
0.284988
0.284866
0.28476
0.284688
0.284657
0.284663
0.284694
0.284733
0.284767
0.284794
0.28482
0.284855
0.284905
0.284966
0.28503
0.28509
0.285145
0.285196
0.285243
0.285278
0.285285
0.285252
0.285176
0.285063
0.284938
0.284834
0.284786
0.284812
0.284905
0.285025
0.285117
0.28513
0.285045
0.284894
0.284752
0.284708
0.28481
0.28503
0.285262
0.285375
0.285294
0.285055
0.284792
0.284663
0.28474
0.284963
0.285179
0.28525
0.285148
0.284968
0.284848
0.28486
0.284967
0.285069
0.285091
0.28504
0.284977
0.284953
0.284973
0.285003
0.285018
0.285016
0.285005
0.284995
0.28499
0.284993
0.285001
0.285008
0.285006
0.284998
0.284993
0.284998
0.285004
0.285005
0.285002
0.284997
0.284999
0.285004
0.285003
0.284995
0.284991
0.285001
0.285013
0.285012
0.284994
0.284979
0.284987
0.285012
0.285026
0.285013
0.284986
0.284974
0.284989
0.285012
0.285017
0.285001
0.284986
0.284995
0.285021
0.285034
0.285011
0.284965
0.284932
0.284943
0.284996
0.285057
0.285091
0.285082
0.285046
0.285007
0.284976
0.28495
0.284914
0.284867
0.284827
0.284822
0.284875
0.284984
0.285125
0.285261
0.285358
0.285398
0.285384
0.285335
0.285274
0.285225
0.285202
0.285211
0.285251
0.285318
0.285404
0.285504
0.285612
0.285722
0.285824
0.285904
0.285957
0.285981
0.285977
0.285949
0.285897
0.285826
0.285741
0.285652
0.285565
0.285478
0.285393
0.285314
0.28525
0.285214
0.285215
0.285253
0.285311
0.285362
0.28537
0.285312
0.285186
0.285019
0.284858
0.284755
0.284744
0.284818
0.284934
0.285033
0.285074
0.285057
0.285018
0.284997
0.285009
0.285032
0.285031
0.284994
0.284947
0.284933
0.284969
0.285033
0.285079
0.285078
0.285043
0.285008
0.284994
0.284991
0.284973
0.284935
0.284899
0.284887
0.284897
0.284911
0.28492
0.284944
0.285008
0.285109
0.285212
0.285276
0.285282
0.285241
0.28517
0.285076
0.284967
0.284862
0.284785
0.284747
0.284735
0.284727
0.284718
0.284711
0.284709
0.28471
0.284718
0.284736
0.284768
0.284809
0.284851
0.284881
0.284895
0.2849
0.284915
0.284957
0.285011
0.285037
0.284997
0.284913
0.284863
0.284927
0.285096
0.285256
0.285268
0.285088
0.284818
0.284645
0.284703
0.284967
0.285273
0.285424
0.285327
0.285043
0.284741
0.284588
0.284648
0.284863
0.285102
0.285242
0.285233
0.285111
0.284959
0.284863
0.284866
0.28496
0.285105
0.285247
0.285342
0.285365
0.285308
0.285188
0.285038
0.284902
0.28482
0.284814
0.28488
0.285
0.285153
0.28532
0.28548
0.285614
0.285703
0.285734
0.285701
0.285604
0.285452
0.285267
0.285075
0.284908
0.284791
0.284742
0.284769
0.28487
0.285022
0.285186
0.285319
0.285385
0.285366
0.285266
0.285117
0.284968
0.284875
0.284876
0.284974
0.28512
0.285233
0.285234
0.285093
0.28486
0.28465
0.28459
0.284737
0.285031
0.285316
0.285425
0.285291
0.285
0.284737
0.284665
0.284811
0.285053
0.285215
0.2852
0.285052
0.284905
0.284864
0.284931
0.285027
0.285073
0.28505
0.284999
0.284967
0.284971
0.284994
0.285012
0.285014
0.285005
0.284997
0.284996
0.284997
0.284998
0.284999
0.285003
0.285006
0.285003
0.284996
0.285
0.284998
0.285
0.285005
0.285003
0.284994
0.284991
0.285001
0.285014
0.285011
0.284992
0.284977
0.284989
0.285017
0.285029
0.28501
0.284978
0.284968
0.284991
0.285021
0.285026
0.285005
0.284984
0.284989
0.285012
0.285021
0.284997
0.284958
0.284945
0.28498
0.285046
0.285095
0.285089
0.285032
0.284961
0.284913
0.2849
0.28491
0.284923
0.284936
0.284963
0.285024
0.28512
0.285229
0.285309
0.285326
0.285269
0.285154
0.285018
0.284901
0.284824
0.284792
0.284789
0.284791
0.284774
0.284726
0.284647
0.284543
0.284431
0.284326
0.284237
0.284166
0.284112
0.284074
0.28405
0.284041
0.284051
0.284086
0.284151
0.284249
0.284379
0.284529
0.284681
0.284812
0.284901
0.284938
0.284925
0.284885
0.284855
0.284872
0.284953
0.285089
0.285241
0.285355
0.285384
0.285309
0.285155
0.284985
0.284865
0.284835
0.284885
0.284962
0.285011
0.285009
0.284981
0.284971
0.285001
0.28505
0.285071
0.285036
0.284967
0.284917
0.284924
0.28498
0.285036
0.285055
0.285041
0.285027
0.285032
0.285038
0.285019
0.28497
0.284924
0.284912
0.284933
0.284958
0.284969
0.28498
0.285018
0.285076
0.285115
0.285094
0.285016
0.284913
0.284816
0.284728
0.284643
0.284573
0.284545
0.284583
0.284682
0.284818
0.284967
0.285115
0.285244
0.285324
0.285337
0.285291
0.285211
0.285121
0.285032
0.28496
0.284928
0.284946
0.28499
0.285011
0.284981
0.284927
0.284922
0.285012
0.285157
0.285236
0.285149
0.284916
0.284691
0.284656
0.284868
0.285203
0.285434
0.285394
0.285097
0.284726
0.284505
0.284556
0.284835
0.285172
0.285388
0.285393
0.285222
0.284993
0.284832
0.284805
0.284902
0.285056
0.285185
0.285236
0.285193
0.285077
0.284932
0.284804
0.284733
0.284739
0.284819
0.284951
0.285101
0.285238
0.285336
0.285383
0.285385
0.285358
0.285319
0.285283
0.285253
0.285226
0.28519
0.285139
0.285073
0.284997
0.284918
0.284839
0.284761
0.284689
0.284635
0.284624
0.284672
0.284781
0.284935
0.285098
0.285223
0.285266
0.285206
0.285067
0.28491
0.284816
0.284845
0.285004
0.285226
0.28539
0.285382
0.28517
0.284838
0.284561
0.284503
0.284713
0.285077
0.285377
0.285431
0.285221
0.284904
0.284698
0.284723
0.284925
0.285133
0.2852
0.28511
0.284967
0.284889
0.284917
0.284997
0.285051
0.285046
0.285009
0.284983
0.284982
0.284992
0.284999
0.285003
0.285009
0.28501
0.285001
0.284988
0.284988
0.285003
0.285015
0.285007
0.28499
0.284994
0.284994
0.285002
0.285007
0.285001
0.284992
0.284996
0.285009
0.285012
0.284996
0.284979
0.284988
0.285017
0.285031
0.285009
0.284972
0.284963
0.284994
0.285032
0.285036
0.285003
0.284973
0.284977
0.285005
0.285019
0.284999
0.284968
0.284967
0.285012
0.28507
0.285088
0.28504
0.284953
0.284885
0.284874
0.28492
0.284987
0.285042
0.285076
0.285107
0.285148
0.285192
0.285208
0.285161
0.28504
0.284866
0.284685
0.284548
0.284487
0.284505
0.284578
0.284672
0.284752
0.284794
0.28479
0.28474
0.284657
0.284555
0.284443
0.284328
0.284216
0.284119
0.284043
0.283995
0.283971
0.283967
0.283982
0.284019
0.284079
0.284155
0.284242
0.284338
0.284444
0.284557
0.284664
0.284745
0.28478
0.284757
0.284683
0.284587
0.284514
0.28451
0.284605
0.284791
0.28502
0.285217
0.285316
0.285289
0.28517
0.285031
0.284945
0.284939
0.28498
0.285011
0.284995
0.284949
0.284923
0.284957
0.285032
0.285091
0.285083
0.285013
0.28494
0.284917
0.284947
0.284987
0.284999
0.284989
0.284993
0.28503
0.285077
0.285097
0.285083
0.285068
0.285077
0.28509
0.28506
0.284969
0.284851
0.28476
0.284721
0.284718
0.284738
0.284794
0.284899
0.285032
0.285143
0.285203
0.285226
0.285244
0.285264
0.285267
0.28525
0.285234
0.285235
0.285239
0.285223
0.285186
0.285147
0.28512
0.285101
0.285087
0.285081
0.285079
0.28506
0.285008
0.28495
0.284947
0.285026
0.285131
0.285146
0.28501
0.284794
0.284672
0.284779
0.285083
0.285381
0.285445
0.2852
0.284788
0.284478
0.284474
0.284782
0.285213
0.285518
0.285543
0.285307
0.284968
0.284709
0.284644
0.284764
0.284971
0.28514
0.285188
0.285099
0.284921
0.284726
0.284583
0.284536
0.284595
0.284738
0.284922
0.285094
0.285204
0.285223
0.285153
0.285014
0.284832
0.284635
0.284447
0.28429
0.284186
0.28415
0.284191
0.284308
0.284488
0.284707
0.284931
0.285127
0.285262
0.285313
0.285269
0.285135
0.284943
0.28474
0.284582
0.284515
0.284561
0.284707
0.284907
0.285087
0.285174
0.285125
0.284958
0.284759
0.284646
0.284716
0.284972
0.285307
0.28554
0.285518
0.285219
0.284793
0.284482
0.284474
0.28477
0.285172
0.28542
0.285369
0.285092
0.284808
0.284712
0.284835
0.285042
0.285162
0.28513
0.285014
0.284928
0.284927
0.284978
0.285022
0.285031
0.285018
0.285002
0.284989
0.284984
0.28499
0.285005
0.285015
0.285008
0.284993
0.284989
0.284999
0.285008
0.285004
0.284995
0.284993
0.284994
0.285003
0.285004
0.284998
0.284997
0.285005
0.285008
0.284997
0.284984
0.284991
0.285016
0.285028
0.285006
0.28497
0.284963
0.284999
0.285041
0.285041
0.284998
0.284959
0.284965
0.285004
0.285029
0.285013
0.284981
0.284979
0.28502
0.285063
0.285054
0.284983
0.284899
0.284869
0.284921
0.285022
0.285111
0.285147
0.28513
0.285094
0.285062
0.28503
0.284973
0.284873
0.284745
0.284634
0.284592
0.284648
0.284789
0.284974
0.285148
0.28527
0.285326
0.285332
0.285319
0.285323
0.285366
0.285455
0.285585
0.285738
0.285893
0.286031
0.286145
0.286235
0.286298
0.286334
0.28634
0.286313
0.286247
0.286139
0.285989
0.285803
0.285596
0.285399
0.285242
0.285149
0.285129
0.285167
0.285224
0.285252
0.285204
0.285066
0.284862
0.284654
0.284522
0.284521
0.284656
0.28487
0.28507
0.285175
0.285163
0.285081
0.285008
0.284997
0.285037
0.285069
0.285042
0.284963
0.284896
0.284902
0.284982
0.285073
0.285102
0.285056
0.284986
0.284953
0.284968
0.28499
0.284981
0.284954
0.284954
0.285001
0.285062
0.285084
0.285062
0.285034
0.285037
0.285054
0.285037
0.284971
0.284898
0.284874
0.284912
0.284983
0.285058
0.285135
0.285222
0.28531
0.285371
0.285385
0.285347
0.28526
0.285133
0.284983
0.284837
0.284724
0.284664
0.284658
0.284699
0.284778
0.284877
0.284973
0.285044
0.285075
0.285065
0.285025
0.284984
0.284985
0.285041
0.285099
0.285072
0.284933
0.284773
0.284752
0.284948
0.285255
0.285434
0.285309
0.284924
0.284533
0.284419
0.284685
0.285176
0.285585
0.285667
0.285386
0.284924
0.284542
0.284424
0.284586
0.284895
0.285169
0.285279
0.285202
0.285009
0.284813
0.284706
0.28473
0.284866
0.285059
0.285241
0.285355
0.285371
0.28529
0.285137
0.284953
0.284777
0.284645
0.284573
0.284557
0.284578
0.284616
0.284653
0.284684
0.284713
0.284752
0.284807
0.284881
0.284973
0.285078
0.28519
0.285304
0.285409
0.285482
0.285493
0.285421
0.285265
0.285055
0.284845
0.284702
0.284681
0.284794
0.284996
0.28519
0.285266
0.285157
0.284887
0.284585
0.284428
0.284546
0.284924
0.285382
0.285664
0.285589
0.285188
0.284702
0.28443
0.284531
0.284906
0.28528
0.285403
0.285233
0.284944
0.284767
0.284801
0.284966
0.285103
0.28512
0.285045
0.284967
0.284943
0.284968
0.285004
0.285022
0.285019
0.285006
0.284995
0.28499
0.284992
0.284997
0.285004
0.285009
0.285007
0.284997
0.284989
0.284992
0.285006
0.284998
0.285005
0.285004
0.284995
0.284993
0.285004
0.285011
0.285
0.284984
0.284989
0.285015
0.285028
0.285004
0.284967
0.284964
0.285006
0.285049
0.285041
0.284987
0.284944
0.284959
0.285013
0.285048
0.285028
0.284985
0.284974
0.285008
0.285042
0.285023
0.284952
0.284893
0.284911
0.285009
0.285124
0.285177
0.285138
0.28504
0.284943
0.284883
0.284855
0.284829
0.284792
0.284769
0.284804
0.284928
0.285133
0.285365
0.285556
0.285652
0.285637
0.285537
0.285398
0.285273
0.285199
0.285193
0.285251
0.285353
0.285477
0.285604
0.285727
0.285837
0.285927
0.285991
0.286033
0.286057
0.28607
0.28607
0.286052
0.286012
0.285949
0.285865
0.285757
0.285624
0.285476
0.285337
0.285241
0.285218
0.285278
0.285404
0.285551
0.285649
0.285634
0.285478
0.285208
0.284909
0.284686
0.284616
0.2847
0.284866
0.285007
0.285055
0.285018
0.284968
0.284977
0.285048
0.285118
0.285113
0.285022
0.284912
0.284872
0.28493
0.285028
0.285083
0.285063
0.285013
0.284996
0.28502
0.285037
0.285004
0.284942
0.28491
0.28493
0.284963
0.284952
0.284905
0.284888
0.284951
0.285073
0.285183
0.285241
0.285267
0.285291
0.285297
0.285239
0.285109
0.28496
0.284858
0.284817
0.284799
0.284771
0.284745
0.28475
0.284783
0.284809
0.28481
0.284804
0.284816
0.284849
0.284883
0.284905
0.284917
0.284928
0.284933
0.28493
0.284934
0.284971
0.285036
0.285079
0.285039
0.284921
0.284825
0.284875
0.285091
0.285326
0.285358
0.285092
0.28468
0.284429
0.284566
0.285041
0.285549
0.285745
0.285489
0.284937
0.28442
0.284227
0.284431
0.284877
0.285302
0.285499
0.285419
0.28516
0.284894
0.284762
0.284818
0.285024
0.285284
0.285494
0.285585
0.285534
0.285365
0.285137
0.284916
0.284767
0.284728
0.284801
0.284962
0.285179
0.285416
0.285643
0.28583
0.285953
0.285995
0.285945
0.285804
0.285587
0.285325
0.285057
0.284826
0.28467
0.284618
0.284686
0.284864
0.285111
0.285362
0.285545
0.285604
0.285515
0.285302
0.285041
0.284835
0.284779
0.284909
0.28517
0.285421
0.285496
0.285297
0.284875
0.284433
0.284229
0.284419
0.28493
0.28548
0.28574
0.285554
0.285057
0.284588
0.284448
0.284687
0.285082
0.285334
0.285296
0.285063
0.284852
0.284811
0.28492
0.285048
0.285094
0.285053
0.284992
0.284966
0.284976
0.284992
0.285001
0.285009
0.285018
0.285013
0.284991
0.284976
0.284988
0.285016
0.285024
0.285001
0.284978
0.284985
0.285012
0.285005
0.285016
0.285004
0.284988
0.284991
0.285008
0.28501
0.284994
0.284986
0.285005
0.285024
0.285009
0.284972
0.284964
0.285005
0.285051
0.285042
0.284979
0.284932
0.284957
0.285028
0.285069
0.285038
0.284975
0.284952
0.284988
0.285029
0.285017
0.284958
0.284922
0.284969
0.285078
0.285162
0.285145
0.285027
0.284882
0.284797
0.284802
0.284867
0.284937
0.28499
0.285046
0.28514
0.285277
0.285417
0.285494
0.285454
0.285291
0.285049
0.284801
0.284615
0.28452
0.284506
0.284533
0.284552
0.284524
0.284429
0.284271
0.284069
0.283853
0.28365
0.283475
0.283334
0.283234
0.283179
0.283173
0.283221
0.283327
0.283493
0.283714
0.283976
0.284254
0.284505
0.284689
0.284778
0.284771
0.284698
0.284619
0.284603
0.284703
0.284927
0.285222
0.285489
0.285623
0.285568
0.28535
0.285074
0.284868
0.284806
0.284872
0.28497
0.285005
0.284956
0.284888
0.284888
0.284985
0.28511
0.28516
0.285092
0.284964
0.284884
0.284908
0.284991
0.285043
0.285028
0.284991
0.284996
0.285044
0.285072
0.28503
0.284951
0.284911
0.28494
0.284986
0.284981
0.284932
0.284912
0.284969
0.285066
0.285122
0.285108
0.285062
0.285024
0.284983
0.284906
0.284799
0.284713
0.284682
0.284688
0.28471
0.284767
0.284891
0.285062
0.285216
0.285304
0.285333
0.285334
0.285308
0.285237
0.285125
0.285016
0.28495
0.284927
0.284931
0.284957
0.285002
0.285033
0.285004
0.284922
0.284876
0.28496
0.285155
0.285297
0.28521
0.284887
0.284553
0.284501
0.284845
0.285387
0.285737
0.285611
0.285053
0.284412
0.284093
0.284287
0.284858
0.285462
0.285779
0.285689
0.285309
0.284885
0.284638
0.284653
0.284873
0.285151
0.285342
0.285364
0.285218
0.284971
0.284717
0.284539
0.284486
0.284564
0.284741
0.284969
0.285194
0.285372
0.285479
0.285516
0.285504
0.285468
0.28543
0.285397
0.285367
0.285328
0.285269
0.285183
0.285068
0.284928
0.28477
0.284606
0.284459
0.284363
0.284359
0.284471
0.284692
0.284975
0.285237
0.285388
0.285365
0.28517
0.284889
0.284668
0.284652
0.284896
0.285314
0.285687
0.285774
0.285459
0.284859
0.284291
0.284096
0.284408
0.285042
0.285598
0.285729
0.285391
0.284862
0.284524
0.284574
0.284901
0.285212
0.285286
0.285133
0.284935
0.284855
0.284911
0.285006
0.285052
0.285043
0.285016
0.284996
0.284981
0.284974
0.284987
0.285016
0.285028
0.285008
0.284981
0.28498
0.285003
0.285017
0.285005
0.28499
0.284995
0.285008
0.285011
0.285013
0.284997
0.284988
0.284998
0.285008
0.285002
0.284992
0.285
0.285015
0.285008
0.28498
0.28497
0.285005
0.285047
0.285038
0.284975
0.284928
0.28496
0.285043
0.285085
0.285039
0.284955
0.284924
0.284973
0.285035
0.285037
0.284984
0.284952
0.285
0.285093
0.285133
0.285057
0.284902
0.28478
0.284778
0.284895
0.285053
0.285167
0.285211
0.285218
0.285229
0.285246
0.285223
0.285107
0.284882
0.284595
0.284334
0.284183
0.284179
0.284307
0.284503
0.284695
0.28482
0.28485
0.284789
0.284664
0.284512
0.284361
0.284225
0.284112
0.284029
0.283974
0.283937
0.283907
0.283881
0.28386
0.283852
0.283868
0.283917
0.284004
0.284135
0.28431
0.284507
0.284683
0.284791
0.284789
0.284668
0.284463
0.284253
0.284137
0.284197
0.28445
0.284828
0.285197
0.28542
0.28543
0.285273
0.285077
0.28497
0.284987
0.285059
0.285077
0.284992
0.284863
0.284807
0.284888
0.285047
0.285156
0.285133
0.285017
0.284924
0.284926
0.284988
0.285019
0.284983
0.284938
0.284959
0.28504
0.285097
0.285072
0.28501
0.285
0.28507
0.285139
0.285116
0.285001
0.28488
0.284816
0.284785
0.284734
0.284673
0.284668
0.284758
0.284903
0.285033
0.285115
0.285164
0.2852
0.285224
0.285229
0.285218
0.285199
0.285176
0.285151
0.285135
0.285136
0.285135
0.285112
0.285074
0.28505
0.285053
0.285068
0.285072
0.28506
0.285034
0.284988
0.284933
0.284919
0.284999
0.285142
0.285205
0.285063
0.284767
0.284561
0.284687
0.285137
0.285599
0.285687
0.285258
0.284563
0.284075
0.284147
0.284756
0.285527
0.286
0.285929
0.285409
0.284772
0.284359
0.284332
0.28462
0.285007
0.28527
0.285286
0.285071
0.284739
0.284436
0.284274
0.2843
0.284491
0.284776
0.285062
0.285266
0.285337
0.285267
0.285082
0.28482
0.284529
0.28425
0.28402
0.283868
0.283818
0.283881
0.284055
0.284322
0.284642
0.284968
0.285245
0.285424
0.28547
0.285366
0.285126
0.284807
0.284497
0.284291
0.284257
0.284416
0.284719
0.28505
0.285265
0.28525
0.284992
0.284612
0.284331
0.284363
0.284775
0.285409
0.285926
0.285997
0.285529
0.284764
0.284156
0.284078
0.284557
0.285244
0.28567
0.285586
0.285133
0.284696
0.284579
0.284789
0.285083
0.28522
0.285152
0.285003
0.284914
0.284921
0.284974
0.285018
0.285034
0.285029
0.285009
0.284986
0.284976
0.284986
0.285006
0.285018
0.285013
0.284999
0.284987
0.284986
0.284999
0.285015
0.285015
0.284997
0.285009
0.284991
0.284986
0.285002
0.285015
0.285005
0.284987
0.284992
0.285013
0.285014
0.284986
0.284971
0.285001
0.285043
0.285036
0.284973
0.284927
0.284965
0.285055
0.285094
0.285031
0.28493
0.284901
0.284972
0.285061
0.285072
0.285006
0.284957
0.284989
0.285065
0.28508
0.284983
0.284843
0.284787
0.284885
0.285083
0.285251
0.285294
0.285214
0.285086
0.284982
0.284911
0.284831
0.284702
0.284541
0.284423
0.284431
0.284601
0.2849
0.285236
0.285514
0.285672
0.285707
0.285666
0.285615
0.285617
0.285709
0.285894
0.28615
0.286436
0.286718
0.286968
0.287171
0.287315
0.287392
0.287394
0.287316
0.287156
0.286917
0.286608
0.286252
0.285893
0.285586
0.285384
0.285314
0.285367
0.285488
0.285589
0.285574
0.285386
0.285041
0.284635
0.284318
0.284216
0.284367
0.284685
0.285006
0.285181
0.285168
0.285054
0.284981
0.285027
0.285144
0.2852
0.285113
0.284929
0.284793
0.284816
0.284969
0.28511
0.285127
0.285037
0.284957
0.284968
0.285028
0.285039
0.28497
0.284902
0.284929
0.285034
0.285105
0.285073
0.284993
0.284978
0.285053
0.285123
0.285094
0.284984
0.2849
0.284898
0.284938
0.284951
0.284944
0.28498
0.285084
0.285201
0.28526
0.285263
0.285258
0.285257
0.285211
0.285083
0.284904
0.284752
0.284674
0.28466
0.284673
0.284702
0.284765
0.284864
0.284974
0.285055
0.285087
0.285079
0.285047
0.285005
0.284969
0.284972
0.285035
0.285118
0.285118
0.284966
0.284744
0.284668
0.284898
0.285333
0.285623
0.285453
0.28485
0.284222
0.284064
0.284558
0.285417
0.286083
0.286125
0.285528
0.284668
0.284041
0.283948
0.284353
0.284956
0.285416
0.285531
0.285318
0.284949
0.284638
0.284531
0.284663
0.284964
0.285309
0.285578
0.285692
0.285632
0.285431
0.285152
0.284863
0.284624
0.284467
0.284398
0.284395
0.284425
0.284464
0.284498
0.284529
0.284571
0.284639
0.284744
0.284892
0.285082
0.285301
0.285528
0.285725
0.285841
0.285825
0.285649
0.285335
0.284962
0.284646
0.284509
0.284616
0.28493
0.2853
0.285515
0.285401
0.284947
0.284351
0.283952
0.284046
0.284669
0.285525
0.28612
0.286081
0.285421
0.284568
0.284075
0.284228
0.284846
0.285439
0.285605
0.285318
0.284891
0.284668
0.284751
0.284982
0.285139
0.285135
0.28504
0.284963
0.284947
0.284968
0.28499
0.285009
0.285026
0.28503
0.285006
0.284971
0.284964
0.284999
0.285036
0.285029
0.284986
0.284963
0.28499
0.285029
0.285026
0.284987
0.284998
0.284968
0.284983
0.285021
0.285026
0.284994
0.284975
0.284997
0.28502
0.285006
0.284977
0.284988
0.28503
0.285037
0.284982
0.284932
0.284966
0.285059
0.285098
0.285023
0.284909
0.284886
0.284984
0.285097
0.285105
0.28501
0.28493
0.284949