# vtk DataFile Version 3.0
PFC-RG simulation results
ASCII
DATASET STRUCTURED_POINTS
DIMENSIONS 256 256 1
ORIGIN 0 0 0
SPACING 1 1 1
POINT_DATA 65536
SCALARS psi double
LOOKUP_TABLE default
0.284582
0.285539
0.286018
0.28541
0.28425
0.283759
0.284563
0.28594
0.286475
0.285525
0.283952
0.283312
0.284272
0.285912
0.286644
0.285838
0.284432
0.28387
0.284517
0.285321
0.285137
0.284173
0.283847
0.285135
0.287292
0.288378
0.287067
0.283919
0.280908
0.279876
0.281256
0.284029
0.286698
0.288366
0.289191
0.289892
0.290635
0.290421
0.287819
0.282466
0.275831
0.270565
0.268986
0.271941
0.27872
0.287496
0.295783
0.301071
0.301648
0.297367
0.289736
0.281167
0.274053
0.270212
0.270626
0.275221
0.282669
0.29068
0.297024
0.300565
0.301494
0.300794
0.299548
0.298621
0.298664
0.299965
0.30214
0.304107
0.304507
0.302288
0.297113
0.289363
0.279977
0.270544
0.263379
0.260996
0.264917
0.274471
0.286605
0.297208
0.303127
0.303263
0.298374
0.290281
0.281219
0.273622
0.269808
0.271151
0.277039
0.284673
0.290225
0.291148
0.287889
0.283515
0.281611
0.283502
0.287442
0.290127
0.289531
0.286511
0.283763
0.283329
0.284765
0.285855
0.284776
0.281847
0.27926
0.278978
0.280941
0.28322
0.284015
0.283503
0.283483
0.285309
0.288412
0.291072
0.292385
0.293061
0.294369
0.296513
0.298395
0.299005
0.298714
0.298994
0.300765
0.303464
0.305804
0.307184
0.308054
0.308984
0.309865
0.31005
0.309151
0.3074
0.305141
0.302259
0.298349
0.293577
0.288913
0.28525
0.282541
0.280337
0.279192
0.280586
0.284846
0.289481
0.290606
0.286708
0.280758
0.277998
0.281173
0.287901
0.292578
0.291007
0.283766
0.275722
0.272271
0.275766
0.284439
0.29374
0.299071
0.297945
0.291154
0.282383
0.275954
0.274508
0.277586
0.282239
0.28498
0.283678
0.279033
0.27397
0.271671
0.273482
0.278516
0.285177
0.292379
0.299421
0.305237
0.308641
0.30902
0.306561
0.302082
0.296661
0.291402
0.286886
0.282877
0.279041
0.27586
0.27424
0.274227
0.27488
0.275355
0.275741
0.276621
0.278206
0.280189
0.282152
0.28407
0.286291
0.289224
0.292929
0.296947
0.3006
0.303281
0.304331
0.302913
0.298604
0.292004
0.284715
0.278617
0.275051
0.274596
0.276834
0.280454
0.283492
0.284153
0.282102
0.27867
0.276315
0.277167
0.281803
0.288863
0.295306
0.297767
0.294299
0.285908
0.276689
0.271855
0.274472
0.282888
0.291428
0.294353
0.290246
0.283025
0.278565
0.279769
0.284516
0.288233
0.288238
0.285644
0.283457
0.283388
0.284676
0.285596
0.285453
0.284918
0.284821
0.285141
0.285278
0.284977
0.284626
0.284685
0.285095
0.285383
0.285257
0.285155
0.285688
0.285358
0.284386
0.283935
0.284726
0.286036
0.28638
0.28521
0.283645
0.283334
0.284679
0.286381
0.28678
0.285536
0.283899
0.283384
0.28427
0.285452
0.285712
0.285044
0.284628
0.285403
0.286783
0.287015
0.285014
0.281813
0.279913
0.281092
0.284798
0.288695
0.290662
0.290218
0.288315
0.286105
0.283986
0.281641
0.278759
0.275743
0.273917
0.274977
0.279811
0.287489
0.295401
0.300566
0.301147
0.297134
0.289965
0.281852
0.27524
0.272342
0.27452
0.281617
0.291775
0.302117
0.309937
0.313616
0.312807
0.308124
0.300683
0.291739
0.282513
0.274268
0.268406
0.266306
0.268878
0.275991
0.286164
0.297127
0.306957
0.314633
0.319531
0.320607
0.316468
0.30661
0.292698
0.278525
0.268368
0.264927
0.268296
0.2764
0.28624
0.294946
0.300272
0.30084
0.296453
0.288562
0.280251
0.275088
0.275145
0.279498
0.284739
0.287281
0.285866
0.282376
0.280157
0.281357
0.285173
0.288633
0.289355
0.287482
0.285425
0.285463
0.287501
0.28916
0.288072
0.284412
0.280738
0.279546
0.281065
0.283318
0.28429
0.283673
0.282615
0.282208
0.282349
0.282077
0.280826
0.27926
0.278883
0.280625
0.283747
0.286228
0.286464
0.284557
0.281992
0.280261
0.279567
0.279003
0.27797
0.277092
0.277494
0.279183
0.280618
0.280107
0.277609
0.274795
0.273435
0.274015
0.275738
0.27783
0.280508
0.284392
0.288938
0.291837
0.29061
0.285301
0.279584
0.278258
0.282845
0.289676
0.292603
0.288431
0.280003
0.273941
0.275359
0.283827
0.2939
0.299321
0.297158
0.288908
0.278709
0.271216
0.269533
0.273834
0.281352
0.287612
0.289243
0.285972
0.280522
0.276649
0.276942
0.281771
0.289227
0.296422
0.301259
0.303242
0.3029
0.300899
0.297917
0.295139
0.293986
0.295044
0.297572
0.300152
0.301656
0.301588
0.300014
0.297407
0.294347
0.29117
0.288082
0.285673
0.284833
0.28591
0.288223
0.290764
0.29307
0.295104
0.296611
0.297064
0.296324
0.295061
0.29443
0.295302
0.29775
0.300994
0.303628
0.30416
0.301569
0.295858
0.288323
0.281304
0.277269
0.277405
0.280914
0.285369
0.287947
0.286818
0.28203
0.275683
0.271057
0.271189
0.277234
0.287269
0.296623
0.300074
0.295138
0.284384
0.27448
0.271773
0.277569
0.28705
0.293114
0.291995
0.285891
0.280473
0.279796
0.283258
0.287
0.28787
0.286012
0.283953
0.283666
0.284803
0.285646
0.285296
0.284528
0.284539
0.285341
0.285812
0.285227
0.284252
0.28412
0.285057
0.285961
0.285566
0.285035
0.28421
0.284001
0.284921
0.28621
0.286403
0.284999
0.283304
0.283199
0.285022
0.286997
0.287043
0.285036
0.282986
0.282888
0.284654
0.286369
0.286461
0.285285
0.284476
0.284966
0.285913
0.28567
0.283698
0.281441
0.281214
0.284035
0.288453
0.291482
0.290985
0.287343
0.282924
0.279971
0.278902
0.278588
0.278175
0.278301
0.280519
0.285705
0.292958
0.299731
0.303003
0.300755
0.29299
0.28185
0.270817
0.263372
0.261716
0.266069
0.274822
0.285259
0.294308
0.299217
0.298321
0.291699
0.281188
0.269598
0.259524
0.25251
0.248841
0.247753
0.2479
0.247884
0.246765
0.244501
0.242003
0.240639
0.241674
0.246072
0.25441
0.266574
0.281227
0.295511
0.305641
0.30846
0.303037
0.29128
0.277247
0.265476
0.259269
0.259901
0.266749
0.277733
0.28971
0.298975
0.302387
0.298944
0.290825
0.282513
0.278288
0.279522
0.283859
0.287159
0.286598
0.282895
0.279483
0.279528
0.28309
0.28711
0.288291
0.286092
0.283183
0.28273
0.285435
0.288958
0.290295
0.288782
0.286476
0.285832
0.287212
0.28865
0.287922
0.284785
0.281244
0.279502
0.279585
0.279393
0.277229
0.274015
0.272393
0.273678
0.276212
0.276974
0.274841
0.271701
0.270199
0.270721
0.271099
0.269405
0.266369
0.264522
0.26511
0.266807
0.267804
0.268323
0.270334
0.274789
0.280127
0.284023
0.28606
0.287749
0.289853
0.290787
0.288362
0.283119
0.279057
0.28017
0.286164
0.291876
0.291627
0.284694
0.276529
0.27431
0.280816
0.291886
0.299598
0.298139
0.287821
0.274605
0.265722
0.265299
0.27257
0.283292
0.292597
0.29688
0.295288
0.29015
0.285616
0.285147
0.28909
0.294847
0.29867
0.297882
0.291988
0.282388
0.271569
0.261841
0.254632
0.250559
0.250042
0.253333
0.259737
0.267534
0.274926
0.281078
0.28606
0.290023
0.292785
0.294136
0.294217
0.293469
0.292574
0.292087
0.2919
0.291272
0.289616
0.287128
0.284215
0.28075
0.276195
0.270437
0.264229
0.258742
0.255047
0.254048
0.256591
0.262976
0.272362
0.282665
0.291208
0.295869
0.295953
0.292599
0.288185
0.285361
0.285865
0.289417
0.2938
0.295724
0.292689
0.284596
0.274239
0.266537
0.266046
0.274111
0.287139
0.297947
0.300095
0.292458
0.280589
0.272908
0.274391
0.282807
0.290853
0.29246
0.287705
0.281947
0.2803
0.283083
0.286493
0.287169
0.285422
0.283984
0.284409
0.28557
0.285628
0.284557
0.28397
0.284783
0.285962
0.285947
0.28474
0.283884
0.284433
0.285626
0.28529
0.284313
0.283984
0.284861
0.286123
0.286298
0.284934
0.283338
0.283326
0.28519
0.287134
0.287028
0.284742
0.282487
0.28259
0.285007
0.287318
0.287299
0.285257
0.283521
0.283742
0.285096
0.285438
0.284014
0.282537
0.283367
0.286774
0.290311
0.290857
0.287366
0.281748
0.277351
0.276511
0.279063
0.282953
0.286242
0.288588
0.290953
0.293982
0.296613
0.296407
0.291478
0.282279
0.271689
0.263506
0.260594
0.263857
0.272204
0.282942
0.29252
0.297666
0.296443
0.288883
0.276927
0.263736
0.252688
0.2463
0.245473
0.249542
0.257018
0.266373
0.276317
0.285429
0.291786
0.293406
0.289279
0.280113
0.268064
0.255573
0.244383
0.23567
0.230863
0.231896
0.240264
0.255452
0.274171
0.291364
0.302431
0.305065
0.299764
0.289158
0.276792
0.266284
0.260828
0.262344
0.270417
0.28184
0.291722
0.295995
0.293817
0.288146
0.283698
0.283564
0.286944
0.290027
0.289427
0.285058
0.280268
0.278904
0.281694
0.285707
0.28705
0.284575
0.280972
0.280066
0.283135
0.287673
0.289977
0.288692
0.285845
0.284552
0.285756
0.28755
0.287675
0.286254
0.285665
0.287603
0.290887
0.292652
0.291397
0.288474
0.286476
0.286663
0.288243
0.289948
0.291604
0.293709
0.296129
0.29771
0.297427
0.295579
0.293392
0.291649
0.290238
0.2892
0.28939
0.291459
0.294319
0.295582
0.294082
0.29109
0.288534
0.286522
0.283583
0.279618
0.277473
0.280333
0.287295
0.292648
0.290857
0.28257
0.275103
0.275916
0.285345
0.29588
0.298463
0.290107
0.276004
0.26519
0.264123
0.273106
0.287024
0.29867
0.302959
0.29918
0.290463
0.281865
0.277635
0.279329
0.285075
0.29054
0.291552
0.286541
0.277226
0.267152
0.259578
0.256294
0.257383
0.261474
0.266595
0.271069
0.273917
0.274642
0.273093
0.269884
0.266497
0.264411
0.26406
0.264958
0.266586
0.268765
0.271251
0.273456
0.274795
0.275049
0.274416
0.27332
0.272249
0.271589
0.271488
0.271928
0.272764
0.27351
0.273164
0.270699
0.266025
0.26047
0.256304
0.255646
0.259598
0.267665
0.27771
0.286538
0.291123
0.290309
0.285533
0.280249
0.278224
0.281536
0.289327
0.297889
0.302365
0.299163
0.28821
0.273943
0.263736
0.263845
0.274888
0.290285
0.30001
0.29793
0.286779
0.275998
0.273752
0.280245
0.288475
0.291386
0.288065
0.283257
0.281673
0.283584
0.285848
0.286093
0.284947
0.284397
0.285053
0.285729
0.285344
0.28437
0.284084
0.284864
0.285766
0.285764
0.284954
0.284303
0.284446
0.284668
0.284368
0.284988
0.286003
0.28605
0.284686
0.283276
0.283604
0.285663
0.28735
0.286663
0.284042
0.282099
0.28292
0.285815
0.287973
0.287322
0.2846
0.282506
0.28287
0.284846
0.28603
0.285281
0.284058
0.284696
0.287439
0.289618
0.288171
0.282962
0.27742
0.275681
0.279079
0.285306
0.290677
0.293083
0.29299
0.292044
0.291017
0.288914
0.283999
0.27586
0.26662
0.260294
0.260566
0.268509
0.28187
0.296183
0.306792
0.310611
0.306867
0.297009
0.284251
0.272633
0.265759
0.265717
0.272449
0.283874
0.296746
0.30783
0.314904
0.317385
0.316415
0.314187
0.312807
0.313394
0.315844
0.319153
0.321855
0.32221
0.318397
0.30914
0.294658
0.277298
0.261315
0.251447
0.25088
0.259767
0.275136
0.292174
0.305955
0.312797
0.311048
0.30136
0.286698
0.271945
0.262429
0.261565
0.26891
0.279943
0.288543
0.2908
0.28749
0.283242
0.282669
0.286576
0.291326
0.292324
0.288168
0.282072
0.279066
0.281328
0.286237
0.288912
0.286959
0.282509
0.279889
0.281238
0.284466
0.285735
0.283581
0.280395
0.27977
0.282651
0.286615
0.288693
0.288423
0.288032
0.289768
0.29344
0.296606
0.297081
0.295072
0.292973
0.293217
0.296013
0.299273
0.300779
0.300327
0.299719
0.300605
0.302637
0.303915
0.303163
0.301038
0.299231
0.298501
0.297692
0.29508
0.290517
0.28585
0.283029
0.28199
0.281087
0.279675
0.279578
0.282891
0.288425
0.291479
0.288179
0.280375
0.275272
0.278892
0.289431
0.297612
0.294717
0.281101
0.266634
0.262535
0.2723
0.289634
0.304078
0.308149
0.300955
0.287147
0.273538
0.26588
0.26612
0.271974
0.278723
0.281789
0.27936
0.273105
0.267279
0.26617
0.271618
0.282563
0.295972
0.308602
0.31807
0.323083
0.323338
0.319331
0.312139
0.303039
0.29348
0.285
0.278644
0.274402
0.271616
0.269934
0.269445
0.27004
0.270962
0.271453
0.271571
0.272039
0.273464
0.275907
0.279303
0.283808
0.289745
0.297193
0.305483
0.313114
0.318218
0.319276
0.315475
0.306991
0.295181
0.282637
0.272739
0.268171
0.269486
0.274646
0.280012
0.282066
0.279233
0.272989
0.267187
0.266292
0.272834
0.285637
0.299642
0.307609
0.304093
0.289541
0.271755
0.26183
0.266192
0.281219
0.295528
0.299082
0.291173
0.280105
0.275223
0.278986
0.286167
0.289921
0.288156
0.284254
0.282542
0.283894
0.285793
0.285884
0.284578
0.283987
0.284991
0.2862
0.285909
0.284372
0.283498
0.284419
0.286045
0.286406
0.285084
0.283701
0.284481
0.285133
0.28599
0.28599
0.284691
0.283279
0.283578
0.285744
0.287558
0.286697
0.283639
0.281576
0.282987
0.28668
0.288848
0.287165
0.283312
0.28114
0.282569
0.285779
0.287459
0.286423
0.284591
0.284512
0.286302
0.28735
0.285183
0.280476
0.277071
0.278669
0.285261
0.292756
0.296223
0.293853
0.287921
0.282206
0.278667
0.276417
0.273666
0.270382
0.268934
0.272284
0.281405
0.294059
0.305695
0.311646
0.309367
0.299568
0.285754
0.272689
0.264704
0.264434
0.272139
0.285657
0.301006
0.313647
0.320029
0.318716
0.310429
0.297071
0.280728
0.26349
0.247947
0.237214
0.233955
0.239184
0.251807
0.269171
0.288266
0.306571
0.321798
0.331235
0.332061
0.322884
0.305306
0.284053
0.265298
0.254224
0.253261
0.261752
0.276599
0.293172
0.306296
0.311609
0.307265
0.295301
0.281356
0.272001
0.27095
0.276647
0.283372
0.285672
0.282535
0.27797
0.277392
0.282575
0.289941
0.293612
0.290718
0.284212
0.280081
0.281857
0.287363
0.290945
0.289084
0.283653
0.279865
0.280852
0.284707
0.286958
0.285411
0.282252
0.281296
0.283588
0.286261
0.285659
0.281409
0.277058
0.276506
0.279995
0.283906
0.284715
0.282574
0.280529
0.280494
0.280928
0.279177
0.275294
0.272423
0.273129
0.276349
0.278864
0.279182
0.278866
0.279718
0.28096
0.280202
0.276952
0.27399
0.274429
0.278126
0.281951
0.283696
0.284682
0.287427
0.291314
0.292091
0.286793
0.278646
0.275305
0.281191
0.291871
0.297143
0.290438
0.275658
0.264873
0.268152
0.284674
0.302987
0.310133
0.301413
0.282565
0.26441
0.25543
0.257929
0.268652
0.281296
0.289795
0.290932
0.285806
0.279068
0.276075
0.279879
0.289746
0.301821
0.311242
0.314689
0.311738
0.304453
0.295815
0.288393
0.283897
0.283111
0.285752
0.290602
0.296123
0.300994
0.304265
0.305383
0.304451
0.302293
0.299896
0.297827
0.296241
0.295222
0.294713
0.294267
0.293221
0.291208
0.288406
0.285342
0.282738
0.281565
0.283002
0.287873
0.295841
0.305045
0.312461
0.315034
0.31111
0.301541
0.289633
0.279881
0.275897
0.278438
0.284836
0.290146
0.289813
0.282227
0.269832
0.258491
0.25497
0.263397
0.281793
0.301325
0.310679
0.303714
0.28492
0.26731
0.262957
0.273575
0.289421
0.297804
0.293806
0.283454
0.276954
0.278959
0.285362
0.288977
0.287265
0.283839
0.283122
0.285167
0.286547
0.285308
0.283354
0.283543
0.285738
0.287067
0.2858
0.283583
0.283199
0.284988
0.286578
0.286064
0.284336
0.284939
0.285684
0.285754
0.284757
0.283654
0.28392
0.2857
0.287172
0.286347
0.283599
0.281785
0.28328
0.286991
0.289056
0.286936
0.282472
0.280205
0.282526
0.287038
0.289188
0.287215
0.283818
0.282755
0.284502
0.285927
0.284256
0.280684
0.279477
0.283505
0.290852
0.296035
0.294646
0.287047
0.277914
0.272288
0.271838
0.274457
0.277184
0.27941
0.28323
0.290747
0.301037
0.309653
0.311226
0.302984
0.286576
0.267318
0.251657
0.244485
0.247556
0.259274
0.275399
0.290462
0.299497
0.299439
0.289869
0.272937
0.25257
0.233201
0.218296
0.20915
0.204697
0.202577
0.200642
0.197865
0.194435
0.191445
0.190581
0.194037
0.204147
0.222206
0.247004
0.274318
0.297957
0.312033
0.313289
0.302373
0.283503
0.26286
0.246726
0.239973
0.244845
0.260094
0.280815
0.299622
0.309516
0.307523
0.29672
0.284695
0.278638
0.280455
0.285795
0.287968
0.283822
0.276556
0.273008
0.277155
0.286216
0.292926
0.292085
0.28538
0.279572
0.279996
0.285521
0.290158
0.289403
0.284769
0.281852
0.284111
0.289295
0.292023
0.289515
0.284388
0.281563
0.282815
0.285026
0.283945
0.279185
0.274566
0.273688
0.276134
0.278543
0.278623
0.277035
0.275644
0.274972
0.274195
0.273054
0.272367
0.272477
0.272246
0.270667
0.26881
0.268885
0.271279
0.273734
0.274336
0.274278
0.276554
0.281909
0.287295
0.289309
0.288327
0.287768
0.289134
0.289506
0.28548
0.278977
0.276874
0.283267
0.293084
0.295677
0.28603
0.271566
0.266203
0.27695
0.296634
0.309497
0.304205
0.282861
0.258807
0.246417
0.251489
0.269212
0.289317
0.30271
0.305717
0.300228
0.29156
0.285706
0.286055
0.291851
0.29867
0.300984
0.295219
0.28126
0.262372
0.243491
0.229082
0.221608
0.2214
0.2275
0.238313
0.251834
0.265629
0.277384
0.285774
0.290699
0.292703
0.292492
0.291025
0.289403
0.288557
0.288883
0.29013
0.291447
0.291595
0.289506
0.284671
0.277169
0.267289
0.255473
0.242881
0.231745
0.224814
0.224294
0.231172
0.244762
0.262577
0.280515
0.293831
0.299288
0.296933
0.290361
0.284824
0.284508
0.290319
0.299112
0.305197
0.302913
0.289991
0.26999
0.251972
0.246528
0.25874
0.283059
0.304914
0.310264
0.296684
0.275896
0.264468
0.269878
0.284833
0.295253
0.293734
0.285028
0.279125
0.280568
0.285384
0.287461
0.285638
0.283605
0.284244
0.286208
0.28645
0.284546
0.283045
0.283906
0.28601
0.286785
0.285461
0.283787
0.283665
0.284956
0.286008
0.285787
0.285404
0.285396
0.284623
0.283784
0.284215
0.285965
0.287137
0.285918
0.283125
0.281829
0.283957
0.28769
0.289007
0.286045
0.281476
0.28
0.283392
0.288436
0.290153
0.286969
0.282279
0.28069
0.283093
0.28599
0.28579
0.283205
0.282518
0.286463
0.292352
0.294092
0.288182
0.277565
0.269448
0.269245
0.27642
0.285739
0.292208
0.294843
0.296058
0.298012
0.299718
0.297393
0.287794
0.271598
0.254034
0.242272
0.241402
0.251814
0.269401
0.287761
0.300712
0.304136
0.296846
0.280786
0.260573
0.241927
0.229532
0.225615
0.22994
0.240812
0.255958
0.272668
0.28761
0.29719
0.298688
0.291332
0.27651
0.25707
0.236278
0.217294
0.203426
0.198224
0.204525
0.222718
0.249461
0.278215
0.30155
0.313803
0.312741
0.299783
0.279405
0.258314
0.243927
0.241791
0.252775
0.271732
0.289475
0.297991
0.295549
0.287707
0.282959
0.285721
0.292752
0.296264
0.291157
0.280217
0.271996
0.273138
0.282211
0.290884
0.291751
0.285084
0.278205
0.278026
0.284264
0.290318
0.290326
0.285169
0.281043
0.282424
0.287387
0.290059
0.287349
0.282437
0.281095
0.285313
0.291376
0.294085
0.291952
0.287953
0.285973
0.287127
0.289492
0.290712
0.290483
0.290632
0.292825
0.296561
0.299378
0.299055
0.29569
0.291699
0.289638
0.289807
0.290342
0.289723
0.28884
0.289859
0.292928
0.295155
0.293588
0.288839
0.284615
0.28336
0.283417
0.281641
0.278531
0.278762
0.285224
0.293415
0.294178
0.283849
0.270705
0.268631
0.282726
0.301851
0.307727
0.292036
0.264632
0.245267
0.247452
0.269217
0.296456
0.314078
0.315182
0.302662
0.285232
0.271826
0.267654
0.272383
0.28091
0.286367
0.283787
0.272647
0.256821
0.242439
0.234751
0.235883
0.244438
0.256678
0.26841
0.276599
0.280016
0.278877
0.274083
0.266862
0.258818
0.251625
0.246418
0.243497
0.242593
0.24331
0.245261
0.248106
0.251619
0.255696
0.260142
0.26463
0.268993
0.273262
0.277203
0.279827
0.279649
0.275456
0.267023
0.255482
0.243477
0.234976
0.233877
0.241756
0.256411
0.272481
0.283883
0.286783
0.281594
0.272955
0.267643
0.271026
0.283937
0.301575
0.314853
0.314573
0.297175
0.269322
0.246632
0.244081
0.264015
0.292377
0.308797
0.303268
0.28406
0.269175
0.26978
0.281643
0.291875
0.292355
0.285977
0.281074
0.281882
0.285462
0.286814
0.284977
0.283197
0.284118
0.28647
0.287049
0.284977
0.282787
0.283179
0.285666
0.287242
0.286102
0.283751
0.283027
0.284648
0.286509
0.285248
0.284724
0.284083
0.28426
0.28566
0.286908
0.286048
0.283343
0.281823
0.283917
0.287935
0.289265
0.285683
0.280553
0.279562
0.28429
0.290066
0.290844
0.285739
0.279925
0.279025
0.283279
0.287785
0.288166
0.285271
0.283767
0.286348
0.29012
0.289326
0.281824
0.272352
0.268887
0.27543
0.288211
0.298973
0.301963
0.297902
0.291697
0.286942
0.282734
0.27549
0.263694
0.250854
0.243964
0.248863
0.266073
0.29005
0.31206
0.324339
0.323275
0.310359
0.290859
0.271501
0.258323
0.255195
0.262976
0.279305
0.299333
0.317502
0.329606
0.334215
0.332897
0.329098
0.326326
0.326739
0.330685
0.336819
0.342305
0.343229
0.335823
0.31839
0.292867
0.264873
0.241983
0.230826
0.234472
0.251519
0.276835
0.303078
0.322509
0.329026
0.320102
0.298438
0.272206
0.252275
0.246838
0.256371
0.272975
0.285532
0.287591
0.281809
0.277221
0.281009
0.291697
0.300345
0.298623
0.286966
0.274703
0.271762
0.279516
0.289646
0.292522
0.286507
0.278988
0.278124
0.284338
0.290357
0.289287
0.282047
0.276169
0.277496
0.284078
0.2888
0.287437
0.282956
0.281733
0.286442
0.293353
0.296627
0.29448
0.290615
0.289696
0.292196
0.294657
0.294505
0.293232
0.293964
0.296928
0.299057
0.298153
0.295996
0.296034
0.298712
0.300644
0.298864
0.294774
0.292419
0.293185
0.293734
0.290216
0.283578
0.278922
0.27941
0.28237
0.282975
0.280914
0.281011
0.286351
0.292596
0.291697
0.281753
0.271582
0.273087
0.287945
0.302982
0.301283
0.279374
0.253147
0.244972
0.26367
0.296881
0.321697
0.322722
0.30159
0.272283
0.249958
0.242347
0.248323
0.261153
0.272587
0.276782
0.272637
0.264297
0.258797
0.261946
0.275324
0.295879
0.317934
0.335741
0.345516
0.346076
0.338455
0.325161
0.3091
0.292981
0.27904
0.268782
0.262672
0.26013
0.25993
0.260777
0.261755
0.262227
0.261816
0.260675
0.259597
0.259648
0.261652
0.26632
0.274353
0.286108
0.300964
0.316989
0.331262
0.34047
0.341679
0.333361
0.316625
0.295447
0.27563
0.262757
0.259734
0.26519
0.273537
0.27789
0.273905
0.262286
0.248879
0.242031
0.248986
0.271232
0.300925
0.322495
0.321385
0.296083
0.262469
0.243797
0.252432
0.279403
0.302341
0.304905
0.289866
0.27402
0.271195
0.280433
0.289969
0.290874
0.285242
0.281406
0.28337
0.28713
0.287095
0.283524
0.281614
0.284185
0.287942
0.287992
0.284301
0.281589
0.283125
0.286708
0.287819
0.285423
0.282881
0.283293
0.285679
0.284739
0.284588
0.284811
0.285554
0.286144
0.285488
0.28368
0.282682
0.284339
0.287555
0.288608
0.28535
0.280602
0.279828
0.284826
0.290787
0.291026
0.284595
0.277876
0.277843
0.284416
0.290687
0.290654
0.285571
0.281848
0.283284
0.286731
0.285998
0.279559
0.273288
0.274961
0.28607
0.299387
0.30491
0.298412
0.284545
0.272097
0.266425
0.266073
0.266083
0.264137
0.263444
0.269757
0.285546
0.306512
0.323444
0.327843
0.316839
0.294428
0.269047
0.249666
0.242537
0.249458
0.267602
0.290683
0.311116
0.322518
0.321495
0.307962
0.28417
0.253606
0.220781
0.191408
0.171575
0.165739
0.175189
0.197992
0.229943
0.26579
0.300052
0.327158
0.34177
0.340222
0.32258
0.293652
0.261884
0.236613
0.225071
0.230387
0.250885
0.280256
0.308638
0.32548
0.324304
0.307003
0.283825
0.267709
0.265943
0.275217
0.284497
0.284199
0.274566
0.265579
0.267816
0.282135
0.297941
0.302528
0.292881
0.278581
0.27273
0.279392
0.290401
0.294268
0.287818
0.278723
0.276715
0.283319
0.290644
0.290448
0.283283
0.277463
0.279525
0.287067
0.291726
0.288465
0.280616
0.275679
0.27716
0.281624
0.283675
0.282166
0.28031
0.28055
0.281589
0.280915
0.278424
0.27609
0.274772
0.273531
0.272278
0.272966
0.27681
0.281445
0.282909
0.280481
0.277893
0.278582
0.281001
0.280687
0.276703
0.273908
0.277199
0.284743
0.289571
0.288266
0.285359
0.286812
0.291002
0.290005
0.280832
0.272083
0.275445
0.290803
0.303035
0.296306
0.272066
0.25083
0.254078
0.283165
0.316277
0.326658
0.304725
0.264653
0.231223
0.221281
0.235135
0.260673
0.283634
0.295217
0.294325
0.285864
0.277664
0.276945
0.286545
0.303172
0.319184
0.326949
0.322844
0.30851
0.289188
0.271005
0.25868
0.254393
0.257877
0.267213
0.279814
0.293116
0.304911
0.313504
0.318049
0.318895
0.317337
0.314729
0.311643
0.307847
0.302788
0.296049
0.287527
0.277528
0.266947
0.257328
0.250768
0.249603
0.255714
0.269417
0.288542
0.308442
0.323091
0.327388
0.319705
0.303459
0.286148
0.27564
0.275794
0.28415
0.293451
0.295369
0.284461
0.261517
0.23532
0.220644
0.230178
0.263915
0.304716
0.327253
0.316935
0.283144
0.253018
0.249086
0.270464
0.295497
0.303214
0.29197
0.277441
0.274243
0.281901
0.289026
0.288207
0.283254
0.281984
0.285651
0.288454
0.286244
0.282021
0.28144
0.285183
0.288402
0.287273
0.283628
0.282061
0.284043
0.286671
0.28685
0.284936
0.283582
0.284126
0.284716
0.285127
0.285747
0.286023
0.285121
0.283431
0.282908
0.284908
0.287836
0.288151
0.284519
0.280294
0.280506
0.285956
0.291313
0.29034
0.283063
0.276616
0.277988
0.286261
0.293168
0.291849
0.284166
0.278348
0.279639
0.284733
0.286269
0.282011
0.278008
0.281764
0.293004
0.302366
0.299896
0.284813
0.266624
0.256786
0.259443
0.269573
0.279182
0.284906
0.289901
0.298873
0.311569
0.320982
0.317891
0.297974
0.265833
0.233012
0.211736
0.208872
0.223593
0.249003
0.275519
0.294092
0.298504
0.286625
0.260712
0.226659
0.191944
0.162777
0.141914
0.128522
0.119985
0.113796
0.108354
0.103283
0.0998796
0.101311
0.111944
0.135511
0.172515
0.218446
0.264457
0.300309
0.318048
0.314732
0.293165
0.260838
0.228074
0.205849
0.202831
0.221668
0.256186
0.292478
0.315326
0.316949
0.302119
0.284956
0.278626
0.285179
0.294436
0.293581
0.27955
0.262856
0.258292
0.270975
0.290805
0.301507
0.295685
0.281309
0.273304
0.27863
0.29007
0.29461
0.28758
0.277274
0.27537
0.284102
0.294177
0.29534
0.287411
0.279673
0.280123
0.286965
0.291444
0.287954
0.279684
0.274218
0.275108
0.279165
0.281235
0.279802
0.277368
0.276596
0.277581
0.278487
0.27776
0.275516
0.273356
0.273008
0.274541
0.275888
0.27484
0.271921
0.270469
0.272876
0.277402
0.279882
0.278904
0.278016
0.281521
0.288544
0.293115
0.291199
0.285998
0.284132
0.286813
0.287798
0.282297
0.275527
0.277891
0.290579
0.300112
0.291928
0.269281
0.254111
0.265693
0.298372
0.323247
0.31411
0.272162
0.225858
0.206584
0.22437
0.264433
0.302135
0.320676
0.318015
0.302822
0.286796
0.278418
0.280286
0.2887
0.295742
0.293141
0.276392
0.247377
0.213412
0.183757
0.165653
0.162243
0.172637
0.193072
0.218565
0.244113
0.265536
0.280145
0.287107
0.287274
0.282725
0.276369
0.271271
0.269783
0.272603
0.278507
0.284981
0.289171
0.288634
0.281623
0.267453
0.246819
0.221959
0.196646
0.175806
0.164624
0.167053
0.18421
0.213072
0.246548
0.275472
0.292278
0.294737
0.287128
0.278052
0.275791
0.284273
0.301034
0.317253
0.320874
0.30269
0.264643
0.223998
0.205984
0.225814
0.272976
0.31537
0.324164
0.298349
0.264769
0.252575
0.2674
0.290152
0.29928
0.291394
0.280022
0.277773
0.28371
0.288226
0.28623
0.282052
0.282099
0.286297
0.288932
0.286524
0.282118
0.281098
0.284494
0.288085
0.287789
0.284363
0.282029
0.283272
0.286216
0.2873
0.285576
0.283446
0.285373
0.285429
0.285471
0.285174
0.284119
0.283354
0.284588
0.287255
0.288005
0.284737
0.280405
0.280558
0.286358
0.291841
0.290081
0.281731
0.275426
0.278564
0.288638
0.295336
0.291528
0.281018
0.274393
0.277585
0.285894
0.289949
0.286554
0.28207
0.284396
0.292776
0.297236
0.288976
0.27077
0.255902
0.256412
0.272411
0.292615
0.30486
0.305919
0.301713
0.299115
0.298223
0.292267
0.274623
0.24634
0.217605
0.201971
0.207865
0.23343
0.267965
0.297987
0.313165
0.309377
0.288869
0.258552
0.227316
0.203147
0.191091
0.19271
0.206523
0.228734
0.25412
0.276831
0.291171
0.292809
0.28026
0.255578
0.223581
0.190316
0.162068
0.145035
0.144497
0.162971
0.198298
0.243128
0.286686
0.318124
0.329621
0.318302
0.287649
0.248222
0.215477
0.203663
0.217963
0.250002
0.281685
0.296705
0.292033
0.279701
0.27622
0.287885
0.304857
0.310083
0.295565
0.271137
0.256556
0.263297
0.283733
0.298591
0.295535
0.280698
0.271194
0.276833
0.290414
0.296586
0.289085
0.276992
0.273953
0.28297
0.293677
0.294395
0.284824
0.275681
0.276502
0.285704
0.293603
0.293606
0.288423
0.285344
0.287405
0.290955
0.291246
0.288415
0.2868
0.28924
0.293724
0.296196
0.295736
0.295204
0.296692
0.298064
0.295558
0.28945
0.284955
0.286331
0.291295
0.293522
0.290603
0.287134
0.288605
0.29361
0.294942
0.288779
0.280161
0.277285
0.281422
0.285459
0.283409
0.27888
0.280859
0.290733
0.297286
0.288559
0.268747
0.25856
0.273839
0.30453
0.319551
0.29655
0.246824
0.208625
0.213733
0.259487
0.313014
0.340084
0.329756
0.296
0.261428
0.241771
0.240625
0.252105
0.265755
0.271317
0.263205
0.243098
0.219023
0.201225
0.197035
0.207606
0.228356
0.25187
0.271202
0.282068
0.283328
0.276189
0.262881
0.245823
0.227466
0.210254
0.196245
0.186784
0.18262
0.18402
0.190685
0.201668
0.215649
0.231223
0.246962
0.261479
0.273551
0.282078
0.285602
0.282175
0.270281
0.250537
0.226829
0.205845
0.194971
0.198969
0.217025
0.241959
0.263196
0.272172
0.26678
0.252579
0.240045
0.240152
0.25942
0.294521
0.329311
0.340306
0.313163
0.259028
0.212728
0.207541
0.246077
0.29648
0.320327
0.306003
0.275342
0.259129
0.267944
0.286905
0.295652
0.289538
0.280366
0.279738
0.286114
0.28946
0.285261
0.27973
0.280753
0.287281
0.290929
0.287072
0.28069
0.279722
0.284987
0.289616
0.288138
0.283072
0.280997
0.283984
0.287618
0.287372
0.284263
0.28577
0.284755
0.284205
0.284312
0.284659
0.285351
0.286434
0.286632
0.284539
0.281548
0.281618
0.286304
0.291081
0.289438
0.281365
0.275295
0.279137
0.290157
0.296621
0.290652
0.277668
0.270974
0.277255
0.289451
0.295023
0.289869
0.282017
0.281333
0.287453
0.290042
0.281131
0.265725
0.258492
0.269387
0.293075
0.313013
0.315915
0.302394
0.284071
0.271426
0.26493
0.25721
0.242914
0.226183
0.218911
0.231602
0.264419
0.305418
0.337268
0.34718
0.333038
0.302697
0.268572
0.242173
0.23103
0.237358
0.257974
0.285787
0.312499
0.33143
0.339636
0.338731
0.33363
0.329658
0.330156
0.335883
0.345094
0.35322
0.353427
0.339558
0.310091
0.27008
0.229694
0.200405
0.190819
0.204012
0.236934
0.280976
0.323201
0.349042
0.347602
0.318291
0.274033
0.236461
0.223657
0.237972
0.264133
0.280934
0.27796
0.263797
0.257933
0.272358
0.299203
0.316683
0.309246
0.283054
0.261166
0.261681
0.280619
0.297071
0.295125
0.279659
0.269461
0.276156
0.291991
0.299351
0.290409
0.275074
0.269473
0.278296
0.290624
0.293028
0.284318
0.275596
0.276858
0.286373
0.294323
0.294548
0.290193
0.28802
0.289999
0.292435
0.292144
0.290607
0.290852
0.292738
0.293713
0.293209
0.293533
0.295745
0.297242
0.295434
0.29241
0.29288
0.297228
0.299696
0.295486
0.287989
0.285268
0.289213
0.292133
0.286662
0.276476
0.272678
0.279515
0.288288
0.288528
0.282017
0.280226
0.287873
0.294696
0.287963
0.271112
0.26375
0.279346
0.305368
0.311428
0.281207
0.234664
0.213716
0.242728
0.302972
0.347571
0.341808
0.290224
0.228286
0.19086
0.189303
0.212432
0.241279
0.261635
0.267736
0.261789
0.251962
0.248731
0.259891
0.285984
0.320065
0.351553
0.371295
0.374709
0.362201
0.338099
0.30876
0.280455
0.257616
0.242199
0.234111
0.231931
0.233445
0.23614
0.238056
0.238188
0.236373
0.233042
0.229223
0.22662
0.227301
0.233378
0.246627
0.267902
0.296012
0.326726
0.353308
0.368626
0.367707
0.349656
0.318986
0.285097
0.258918
0.247775
0.251319
0.261857
0.268642
0.263137
0.242664
0.212785
0.188399
0.189211
0.226825
0.289478
0.341601
0.347361
0.302055
0.240981
0.21168
0.233176
0.280998
0.312586
0.307342
0.281268
0.265009
0.271483
0.287224
0.2928
0.285527
0.278693
0.282028
0.289838
0.290565
0.283028
0.277454
0.281208
0.289222
0.291315
0.285524
0.279773
0.280935
0.286526
0.289138
0.286284
0.282552
0.282616
0.285462
0.286916
0.285611
0.284983
0.283815
0.283776
0.284721
0.285985
0.286739
0.286056
0.28378
0.281717
0.282697
0.28704
0.290546
0.288163
0.280662
0.275835
0.280489
0.291328
0.29663
0.288971
0.274932
0.269239
0.278631
0.293769
0.299164
0.290153