# vtk DataFile Version 3.0
PFC-RG simulation results
ASCII
DATASET STRUCTURED_POINTS
DIMENSIONS 256 256 1
ORIGIN 0 0 0
SPACING 1 1 1
POINT_DATA 65536
SCALARS psi double
LOOKUP_TABLE default
0.286007
0.307518
0.304026
0.273823
0.249565
0.261965
0.300955
0.323
0.300126
0.253825
0.232504
0.257664
0.300837
0.316423
0.291572
0.257213
0.250388
0.272999
0.29241
0.281247
0.250731
0.239473
0.26972
0.318346
0.334755
0.289748
0.2066
0.142486
0.138649
0.188497
0.25129
0.291363
0.302225
0.297836
0.28872
0.269563
0.226153
0.150059
0.0484793
-0.0542003
-0.124325
-0.135699
-0.0842979
0.0122432
0.12706
0.231344
0.293866
0.288787
0.21403
0.0995391
-0.00750515
-0.0677057
-0.0658054
-0.0130847
0.0621025
0.130358
0.172922
0.18449
0.172247
0.150415
0.12825
0.104127
0.076468
0.0562093
0.0594548
0.0875845
0.121428
0.138805
0.138391
0.14355
0.175316
0.21698
0.214362
0.125586
-0.0280506
-0.1703
-0.232823
-0.201834
-0.10626
0.0200252
0.154147
0.273759
0.347581
0.345782
0.262892
0.129121
-0.000203581
-0.0706348
-0.0575804
0.0187498
0.106052
0.154977
0.152032
0.127398
0.131833
0.197437
0.307631
0.400639
0.412394
0.330202
0.212127
0.14531
0.168829
0.236167
0.264803
0.223549
0.160844
0.149303
0.215939
0.324309
0.408358
0.423264
0.378751
0.327064
0.311568
0.326992
0.335488
0.320335
0.310385
0.341785
0.408989
0.471342
0.499987
0.502388
0.503232
0.514086
0.527348
0.532792
0.529351
0.519538
0.503112
0.482576
0.466171
0.456466
0.441638
0.407852
0.357776
0.307668
0.26447
0.215766
0.154035
0.106769
0.123291
0.220898
0.351241
0.431076
0.410677
0.315764
0.227651
0.214899
0.268518
0.304768
0.24549
0.0965564
-0.058488
-0.130859
-0.084054
0.0566068
0.223308
0.338281
0.350405
0.257375
0.100371
-0.0597528
-0.168356
-0.197271
-0.153525
-0.0741345
-0.0114691
-0.00588053
-0.049211
-0.0781639
-0.0282801
0.100068
0.243118
0.3385
0.375136
0.381303
0.379994
0.366311
0.322336
0.241075
0.135339
0.0350305
-0.0254711
-0.0357303
-0.0227935
-0.0188102
-0.0226592
-0.0123526
0.0150936
0.0388253
0.0413636
0.0237771
-0.00490034
-0.0432386
-0.0975238
-0.165511
-0.2222
-0.230149
-0.169432
-0.0556299
0.0728742
0.182904
0.263464
0.320763
0.359823
0.373181
0.348385
0.282836
0.1881
0.0836305
-0.00889357
-0.0696534
-0.0880859
-0.0706511
-0.0410312
-0.0298823
-0.0565976
-0.11043
-0.147509
-0.115806
0.00419859
0.175099
0.316467
0.349244
0.243976
0.0449827
-0.14503
-0.216453
-0.119323
0.0953719
0.29883
0.369806
0.285165
0.138997
0.0638906
0.117784
0.241612
0.326718
0.320201
0.26291
0.230663
0.252139
0.291687
0.302956
0.28232
0.263831
0.272506
0.295621
0.302747
0.285003
0.264632
0.266591
0.288882
0.306254
0.296659
0.290617
0.272257
0.259435
0.2716
0.301959
0.316746
0.291903
0.24679
0.22904
0.260774
0.309617
0.32302
0.287108
0.241495
0.233205
0.264677
0.295064
0.289784
0.260091
0.247974
0.274766
0.312535
0.310673
0.249921
0.167916
0.129181
0.167228
0.253866
0.325081
0.337046
0.296419
0.24032
0.194198
0.152569
0.0971786
0.0259545
-0.0396706
-0.0715757
-0.0536312
0.0133105
0.114258
0.221801
0.301325
0.324581
0.282081
0.185572
0.0644195
-0.0420711
-0.0999154
-0.0968964
-0.0466881
0.0212414
0.0767549
0.101235
0.0915292
0.0549876
0.00325004
-0.0499137
-0.0920072
-0.119128
-0.137728
-0.155174
-0.170112
-0.174226
-0.161327
-0.133627
-0.101555
-0.076144
-0.0562836
-0.0239983
0.0386734
0.122495
0.185454
0.182695
0.104468
-0.0176069
-0.135654
-0.213203
-0.234578
-0.195467
-0.0962597
0.0495413
0.205648
0.321027
0.355426
0.303371
0.199157
0.0995599
0.0540978
0.0754238
0.130052
0.163348
0.140855
0.0748965
0.020458
0.0402521
0.154137
0.31032
0.415207
0.410513
0.329911
0.269873
0.29218
0.361754
0.390605
0.332273
0.223165
0.143717
0.149669
0.229891
0.317766
0.348051
0.314058
0.26996
0.269736
0.306389
0.32556
0.299156
0.264317
0.279361
0.354798
0.440939
0.481859
0.472079
0.452678
0.457531
0.477481
0.479746
0.450299
0.408076
0.380283
0.369371
0.349451
0.298825
0.230912
0.181504
0.16631
0.165981
0.160039
0.163775
0.21346
0.311706
0.40299
0.417092
0.335346
0.212384
0.136488
0.159741
0.249712
0.308499
0.256718
0.113827
-0.00947645
-0.0106872
0.114568
0.278917
0.377952
0.353822
0.2144
0.0177369
-0.159781
-0.255706
-0.245375
-0.148931
-0.0177561
0.0921105
0.146935
0.150151
0.137789
0.15412
0.21681
0.297355
0.342195
0.320364
0.249566
0.176197
0.132618
0.113851
0.092924
0.0520641
-0.00222211
-0.0440635
-0.0420306
0.015986
0.104125
0.181046
0.231975
0.272337
0.31204
0.339144
0.342128
0.329336
0.317437
0.30819
0.28453
0.227723
0.134354
0.0172233
-0.101447
-0.190547
-0.216447
-0.169718
-0.0823568
-0.000854941
0.0553848
0.0980983
0.142511
0.190943
0.237889
0.275328
0.291914
0.277615
0.233243
0.173335
0.120806
0.0959169
0.0991112
0.100152
0.0555898
-0.0497328
-0.176319
-0.249051
-0.207765
-0.0497473
0.162168
0.326404
0.353393
0.220968
0.0006484
-0.173468
-0.186504
-0.0252282
0.204273
0.350606
0.334667
0.21135
0.113958
0.130472
0.230932
0.313916
0.316486
0.267976
0.239578
0.260457
0.295769
0.300225
0.27455
0.258223
0.274723
0.301523
0.301842
0.274677
0.256527
0.272774
0.303216
0.293526
0.262536
0.250951
0.275457
0.313165
0.320983
0.282544
0.232241
0.223471
0.269717
0.324175
0.327409
0.273317
0.217398
0.215881
0.264571
0.307177
0.300617
0.260959
0.240026
0.26251
0.296277
0.288722
0.228429
0.164103
0.158953
0.227571
0.318468
0.357711
0.311627
0.211081
0.118412
0.0729863
0.0674426
0.0704483
0.0653135
0.0647302
0.0920442
0.15353
0.229557
0.288816
0.307074
0.273787
0.191297
0.0763936
-0.040957
-0.127995
-0.161126
-0.133048
-0.0588404
0.0240628
0.0735717
0.0683589
0.0176136
-0.0504989
-0.108619
-0.14301
-0.152928
-0.143137
-0.119632
-0.0892697
-0.058782
-0.0335873
-0.0192307
-0.0221585
-0.0444075
-0.0775212
-0.107792
-0.131446
-0.158648
-0.19512
-0.222197
-0.204496
-0.123168
-0.000270122
0.111346
0.164153
0.143113
0.0635064
-0.04652
-0.156329
-0.233594
-0.248205
-0.184263
-0.0533834
0.104254
0.235399
0.298595
0.287343
0.235449
0.194525
0.197853
0.238532
0.273578
0.250632
0.150063
0.0175605
-0.0533327
0.00602822
0.170337
0.329171
0.383151
0.337295
0.288022
0.316456
0.407903
0.476807
0.453639
0.345717
0.229921
0.18852
0.236036
0.304332
0.313525
0.259705
0.21575
0.239087
0.298189
0.311279
0.247747
0.165142
0.139541
0.177532
0.216798
0.209881
0.177609
0.166208
0.180282
0.186209
0.168254
0.150169
0.15619
0.172415
0.165005
0.131197
0.111095
0.138822
0.197355
0.241846
0.261614
0.29152
0.350545
0.39389
0.355339
0.234361
0.117328
0.100628
0.199379
0.33297
0.393191
0.334632
0.213801
0.140544
0.182026
0.303741
0.397087
0.36647
0.199845
-0.0303519
-0.221851
-0.299494
-0.243956
-0.0924195
0.0846259
0.217708
0.265833
0.228903
0.143792
0.06509
0.0349197
0.0541221
0.0771441
0.0466124
-0.0556603
-0.192874
-0.307892
-0.368074
-0.378875
-0.364925
-0.34431
-0.319501
-0.284898
-0.233272
-0.160093
-0.0776515
-0.0173522
0.00138766
-0.00502638
-0.00953076
-0.00925772
-0.0180717
-0.0377268
-0.0517325
-0.0447977
-0.0183714
0.0157263
0.0520436
0.0910775
0.116139
0.0884182
-0.0109514
-0.14376
-0.248346
-0.304117
-0.336415
-0.367388
-0.39091
-0.390941
-0.35881
-0.291942
-0.1946
-0.0844433
0.0114011
0.070601
0.0859358
0.0700934
0.0554815
0.0774215
0.142551
0.211762
0.222231
0.134904
-0.031667
-0.205601
-0.296986
-0.244887
-0.0570529
0.181088
0.343314
0.33481
0.160513
-0.0630358
-0.177281
-0.0964159
0.119922
0.31077
0.350835
0.25658
0.156409
0.1557
0.239214
0.31004
0.307038
0.261661
0.243052
0.27155
0.304036
0.297883
0.26522
0.251796
0.274862
0.303248
0.301793
0.276375
0.26122
0.271741
0.282255
0.260785
0.269563
0.303907
0.320263
0.288069
0.234916
0.22221
0.271996
0.332504
0.331531
0.261404
0.19322
0.198274
0.267562
0.323961
0.310533
0.250888
0.215277
0.23764
0.280297
0.281879
0.230871
0.181844
0.196509
0.274096
0.344944
0.333677
0.22946
0.0965169
0.0172112
0.0246827
0.0874778
0.151509
0.189221
0.209006
0.228832
0.251096
0.259573
0.233165
0.163273
0.0617642
-0.0463438
-0.13502
-0.181552
-0.170118
-0.103655
-0.0090814
0.0771001
0.126008
0.121227
0.0622718
-0.0278099
-0.108429
-0.146636
-0.136822
-0.0950956
-0.040407
0.0146684
0.0619308
0.0975268
0.124698
0.149899
0.172673
0.181091
0.161689
0.116622
0.0669098
0.031487
0.00406182
-0.0418929
-0.122415
-0.218694
-0.283186
-0.272666
-0.181554
-0.0454853
0.0857319
0.177709
0.216672
0.195446
0.112157
-0.0132426
-0.134061
-0.199682
-0.184696
-0.0995621
0.0166214
0.115138
0.162992
0.160844
0.141964
0.153338
0.221804
0.319021
0.365921
0.296634
0.132879
-0.0128244
-0.0275891
0.096681
0.250538
0.30938
0.252603
0.175244
0.184606
0.296133
0.425925
0.471999
0.407354
0.303941
0.260255
0.300424
0.353754
0.340792
0.268022
0.218904
0.25209
0.330198
0.364606
0.320313
0.251141
0.224782
0.243726
0.263485
0.261072
0.2497
0.241896
0.23568
0.234171
0.248095
0.272317
0.282668
0.269023
0.257157
0.279306
0.327304
0.355453
0.337486
0.302728
0.294493
0.302296
0.269507
0.179257
0.102202
0.129608
0.264968
0.401986
0.419018
0.298905
0.153837
0.119545
0.219874
0.345511
0.361054
0.218008
-0.0195241
-0.228779
-0.307346
-0.227561
-0.0399871
0.164741
0.300585
0.319031
0.2272
0.0783175
-0.0637124
-0.157664
-0.19645
-0.201513
-0.208782
-0.246332
-0.310094
-0.360982
-0.35789
-0.297211
-0.214971
-0.151593
-0.120644
-0.109552
-0.100776
-0.0887854
-0.0802548
-0.0874359
-0.123305
-0.191111
-0.273161
-0.340223
-0.37797
-0.394196
-0.401691
-0.405598
-0.405904
-0.402525
-0.395692
-0.382019
-0.346222
-0.265374
-0.140657
-0.0208787
0.0333975
0.0123608
-0.040511
-0.085662
-0.11827
-0.146902
-0.175496
-0.210077
-0.258437
-0.315028
-0.358495
-0.368698
-0.340601
-0.284439
-0.221569
-0.176747
-0.15988
-0.149921
-0.105282
-0.000291786
0.143846
0.262778
0.285717
0.180326
-0.0202049
-0.223637
-0.319418
-0.240225
-0.0136958
0.236697
0.359345
0.279559
0.0664889
-0.107093
-0.100446
0.0751714
0.270634
0.341288
0.277593
0.192156
0.186725
0.252581
0.305532
0.295159
0.254958
0.246885
0.281099
0.310047
0.295407
0.257416
0.24624
0.277122
0.312442
0.309916
0.273769
0.247319
0.276826
0.290671
0.306994
0.305986
0.275971
0.238594
0.236983
0.284547
0.334884
0.323582
0.246125
0.176955
0.191684
0.27676
0.339431
0.312158
0.228146
0.179378
0.210099
0.27237
0.289206
0.245014
0.199804
0.215946
0.283514
0.325495
0.27485
0.144048
0.0198279
-0.010289
0.0683625
0.189669
0.269839
0.276847
0.237792
0.190503
0.143618
0.0837455
0.00451802
-0.0824863
-0.155417
-0.191223
-0.175347
-0.110372
-0.0132281
0.0929683
0.179022
0.212852
0.178766
0.0925915
-0.00974619
-0.0947539
-0.139862
-0.134292
-0.0869385
-0.0275332
0.0143791
0.030936
0.0305258
0.0197706
0.00103099
-0.0188496
-0.0285512
-0.0221242
-0.00576168
0.00680506
0.0082721
0.00733149
0.0204027
0.0518916
0.0842238
0.0858402
0.0310248
-0.0772942
-0.199983
-0.283891
-0.297049
-0.238371
-0.121644
0.031435
0.182451
0.282125
0.298679
0.233903
0.114937
-0.0168925
-0.114804
-0.145967
-0.111251
-0.0438056
0.00899123
0.0125083
-0.021874
-0.0287973
0.0578516
0.227522
0.379941
0.404569
0.282506
0.115719
0.0455738
0.122425
0.25523
0.304049
0.222519
0.0988475
0.0619751
0.15915
0.317081
0.411646
0.383913
0.294956
0.257284
0.310626
0.381363
0.372855
0.283954
0.216636
0.258178
0.378909
0.47363
0.487525
0.461882
0.460989
0.495616
0.529756
0.533528
0.511474
0.490573
0.489548
0.497778
0.487497
0.450851
0.414921
0.407419
0.415331
0.39567
0.329701
0.251699
0.211159
0.212122
0.209628
0.176562
0.155059
0.210162
0.332648
0.419888
0.371646
0.199329
0.0346126
0.0176287
0.153859
0.290523
0.264406
0.063643
-0.173404
-0.289554
-0.220126
-0.014084
0.212858
0.348423
0.33813
0.20012
0.000962883
-0.180893
-0.285933
-0.297478
-0.24624
-0.186666
-0.160425
-0.172051
-0.189976
-0.168861
-0.0798717
0.0659675
0.219128
0.324916
0.36127
0.34383
0.300682
0.249382
0.191998
0.119728
0.0229569
-0.090475
-0.18702
-0.231744
-0.22339
-0.190808
-0.156619
-0.124223
-0.0969466
-0.0876702
-0.104917
-0.146544
-0.209847
-0.287311
-0.347635
-0.347134
-0.273872
-0.160213
-0.0444216
0.0577068
0.142367
0.207298
0.256082
0.291266
0.299236
0.257012
0.158857
0.0279382
-0.0995163
-0.193459
-0.236516
-0.228729
-0.19511
-0.17718
-0.201051
-0.249519
-0.269047
-0.208432
-0.0577881
0.137483
0.292261
0.321368
0.191225
-0.0447356
-0.25958
-0.320536
-0.177231
0.0896171
0.308982
0.339722
0.184954
-0.00420433
-0.0566132
0.0673507
0.247244
0.330909
0.285509
0.208963
0.20345
0.265159
0.310388
0.289679
0.243578
0.240425
0.285579
0.318732
0.296668
0.250015
0.24124
0.281577
0.317484
0.303629
0.262739
0.282436
0.315488
0.316815
0.275808
0.231203
0.235299
0.292592
0.342643
0.319135
0.229397
0.160716
0.190474
0.292901
0.356925
0.30774
0.194152
0.135201
0.185272
0.277326
0.307722
0.255025
0.194794
0.2024
0.263193
0.290538
0.224225
0.0989771
0.0141941
0.0420243
0.164385
0.28969
0.328087
0.259571
0.137825
0.0311485
-0.0368694
-0.0869434
-0.137055
-0.174063
-0.172285
-0.12179
-0.0323088
0.0746859
0.170381
0.227175
0.230213
0.179092
0.0848789
-0.0266148
-0.117248
-0.157137
-0.144145
-0.0991099
-0.0483153
-0.0151598
-0.0164455
-0.0521091
-0.102208
-0.144639
-0.173343
-0.194242
-0.210874
-0.221044
-0.222406
-0.215284
-0.202074
-0.186406
-0.170985
-0.153973
-0.126931
-0.0785451
-0.00800698
0.0613133
0.0900911
0.05353
-0.0384656
-0.151479
-0.247527
-0.295459
-0.275723
-0.187658
-0.0514888
0.0991649
0.22265
0.278051
0.248669
0.156984
0.0502413
-0.0240546
-0.035273
0.0093234
0.0528341
0.0277169
-0.0698488
-0.15523
-0.12351
0.0510071
0.27571
0.402789
0.355097
0.20508
0.114865
0.176732
0.319982
0.390299
0.309918
0.149167
0.0541397
0.110194
0.261004
0.360323
0.32065
0.207274
0.164408
0.247953
0.358959
0.363508
0.257814
0.17137
0.206443
0.325592
0.418682
0.436927
0.421774
0.424754
0.445386
0.454968
0.447599
0.441426
0.43958
0.418134
0.365339
0.312729
0.299662
0.312367
0.292801
0.218412
0.143063
0.135174
0.191527
0.241918
0.239738
0.223087
0.262541
0.35321
0.395159
0.303709
0.12142
-0.00505214
0.0364012
0.206945
0.333126
0.261406
0.0201592
-0.197154
-0.220422
-0.0446922
0.198836
0.358063
0.348111
0.182151
-0.0512259
-0.245757
-0.331305
-0.298361
-0.189578
-0.0678321
0.0164104
0.0428033
0.0264312
0.00915579
0.0303495
0.0955266
0.17416
0.226581
0.23098
0.193088
0.137986
0.0895048
0.0543375
0.025041
-0.00812426
-0.0541559
-0.114928
-0.165962
-0.160817
-0.0801373
0.0358223
0.129711
0.185604
0.222113
0.247768
0.252439
0.233316
0.198617
0.142751
0.0450401
-0.0931559
-0.229927
-0.314454
-0.323571
-0.266177
-0.172625
-0.0813513
-0.0158881
0.0298843
0.0753108
0.125245
0.166667
0.185995
0.178012
0.14123
0.0789916
0.00952065
-0.036429
-0.0394264
-0.0141947
-0.0040693
-0.0480391
-0.147929
-0.260304
-0.316147
-0.258352
-0.0816884
0.148371
0.31781
0.324851
0.149977
-0.112509
-0.297251
-0.273727
-0.0488982
0.221913
0.348013
0.262506
0.0838889
0.00316246
0.0947483
0.251963
0.320656
0.270235
0.204538
0.21876
0.288081
0.31773
0.273382
0.220925
0.233973
0.296717
0.328394
0.291253
0.236918
0.23422
0.280782
0.315574
0.303751
0.291137
0.302968
0.287299
0.253017
0.245149
0.286129
0.331919
0.31373
0.228011
0.160118
0.193622
0.303122
0.366609
0.299628
0.160284
0.0925074
0.163942
0.289066
0.330627
0.255961
0.163186
0.155966
0.224028
0.265441
0.211212
0.10503
0.0554822
0.120911
0.250364
0.332164
0.291912
0.148213
-0.0129632
-0.111437
-0.127624
-0.0987591
-0.0688428
-0.0453383
-0.00684913
0.0570542
0.128812
0.180873
0.19404
0.159746
0.0824194
-0.0160833
-0.105306
-0.162045
-0.174382
-0.140173
-0.074432
-0.0112621
0.016322
-0.00124116
-0.0506365
-0.109825
-0.156926
-0.176118
-0.16541
-0.136465
-0.10297
-0.0723214
-0.0493411
-0.0403898
-0.0480249
-0.065941
-0.0857252
-0.107931
-0.141558
-0.18864
-0.230542
-0.234791
-0.180815
-0.0804354
0.0277905
0.101989
0.116276
0.0661719
-0.0319767
-0.145794
-0.238298
-0.278071
-0.246506
-0.148449
-0.0176876
0.0993467
0.166496
0.167924
0.116506
0.0616165
0.0638467
0.134514
0.206497
0.186274
0.0457188
-0.133739
-0.2117
-0.103852
0.129659
0.316195
0.323784
0.193206
0.0957526
0.153476
0.320106
0.439301
0.399558
0.237219
0.106463
0.133351
0.27819
0.367158
0.289972
0.134349
0.0830591
0.195258
0.339786
0.35839
0.247056
0.136859
0.129184
0.199701
0.257552
0.254714
0.214992
0.182858
0.18028
0.204011
0.231773
0.23034
0.185832
0.134223
0.132874
0.184292
0.217787
0.178257
0.111548
0.115862
0.212142
0.311648
0.327512
0.280386
0.261971
0.305447
0.331648
0.250647
0.0973558
0.0190024
0.112826
0.305378
0.4088
0.295291
0.031313
-0.163287
-0.121947
0.10657
0.320012
0.353807
0.192289
-0.0612134
-0.273131
-0.350215
-0.275243
-0.103439
0.0760324
0.186411
0.196222
0.126425
0.0277862
-0.0502549
-0.0791111
-0.0646372
-0.0485777
-0.078307
-0.164658
-0.274399
-0.362405
-0.40398
-0.4025
-0.378142
-0.350249
-0.327691
-0.313063
-0.30385
-0.282832
-0.226307
-0.140427
-0.0685484
-0.0419405
-0.0461622
-0.0512498
-0.0505923
-0.0532634
-0.0559662
-0.0431816
-0.0135
0.0092358
-0.00376294
-0.0626631
-0.15442
-0.250338
-0.319926
-0.351939
-0.363535
-0.378639
-0.400215
-0.41184
-0.39833
-0.354376
-0.281469
-0.190746
-0.107661
-0.0612085
-0.0600994
-0.080524
-0.0815214
-0.0363777
0.0457611
0.122314
0.139155
0.0626349
-0.092351
-0.258008
-0.341298
-0.274122
-0.0634574
0.191723
0.342934
0.285391
0.0460555
-0.211496
-0.295819
-0.139879
0.134379
0.314401
0.287789
0.143387
0.066575
0.137303
0.261516
0.304596
0.251151
0.201713
0.231452
0.29942
0.314023
0.257812
0.20829
0.233066
0.301587
0.327783
0.283045
0.22893
0.232947
0.285871
0.322112
0.291983
0.267148
0.255469
0.269075
0.303794
0.326663
0.297725
0.223079
0.172857
0.213654
0.316806
0.365663
0.28098
0.127843
0.0615838
0.154448
0.304911
0.347953
0.242074
0.111159
0.0936243
0.184815
0.258588
0.225908
0.132788
0.0952939
0.164171
0.271123
0.299508
0.196296
0.0180916
-0.122606
-0.150859
-0.0778162
0.0258397
0.0957221
0.117066
0.114936
0.11354
0.109231
0.0820362
0.0248483
-0.0493829
-0.122674
-0.178594
-0.19857
-0.170812
-0.105707
-0.0304551
0.0303038
0.0595516
0.0445838
-0.0128759
-0.0869752
-0.142422
-0.158999
-0.138236
-0.0943809
-0.0445639
-0.000880793
0.0348888
0.067695
0.0975766
0.114518
0.109026
0.0849603
0.0558859
0.0287315
-0.00429128
-0.0562585
-0.131036
-0.215913
-0.28217
-0.295913
-0.239216
-0.126178
0.00293618
0.10584
0.158527
0.1542
0.092621
-0.0145324
-0.132067
-0.213735
-0.231305
-0.186118
-0.102219
-0.0216348
0.0105776
-0.0158238
-0.0519827
-0.0229502
0.0998753
0.254248
0.319468
0.215303
-0.0070197
-0.179179
-0.155421
0.0443007
0.242349
0.271667
0.137503
0.00357567
0.0263467
0.207954
0.393478
0.413235
0.259177
0.112174
0.145917
0.316397
0.41228
0.313287
0.131675
0.0723917
0.194567
0.358707
0.402046
0.314785
0.222006
0.222566
0.287689
0.325127
0.298162
0.249921
0.237254
0.267781
0.297388
0.282328
0.235101
0.218408
0.266387
0.326881
0.32086
0.255703
0.227556
0.289195
0.367085
0.357437
0.269167
0.209764
0.236099
0.278633
0.238979
0.13189
0.0849505
0.181388
0.337157
0.373966
0.209333
-0.0474389
-0.184834
-0.0820393
0.166289
0.329734
0.257321
0.00148904
-0.255447
-0.357869
-0.268079
-0.0571171
0.159367
0.285026
0.279934
0.166607
0.00644847
-0.138007
-0.232212
-0.275265
-0.28641
-0.291683
-0.313998
-0.355514
-0.38851
-0.380172
-0.328245
-0.261591
-0.210108
-0.185031
-0.181138
-0.18691
-0.1937
-0.20069
-0.211926
-0.232571
-0.269957
-0.325819
-0.384228
-0.421962
-0.433751
-0.433685
-0.43453
-0.435652
-0.425878
-0.39096
-0.322174
-0.227461
-0.136786
-0.0881281
-0.0968391
-0.139833
-0.179937
-0.202356
-0.217515
-0.237945
-0.267872
-0.308755
-0.35763
-0.398834
-0.410655
-0.38601
-0.34106
-0.300557
-0.277188
-0.26376
-0.238361
-0.175435
-0.0625627
0.0808416
0.200126
0.228828
0.129502
-0.0704081
-0.273686
-0.355949
-0.244673
0.0138395
0.262159
0.331556
0.171806
-0.0939849
-0.25256
-0.173026
0.0741951
0.27802
0.29182
0.173837
0.10271
0.167312
0.27969
0.304988
0.233364
0.179546
0.224925
0.312183
0.326775
0.251816
0.188981
0.221869
0.307049
0.337491
0.284908
0.227238
0.237615
0.292687
0.285819
0.253067
0.259189
0.301756
0.331541
0.301447
0.225907
0.181435
0.228577
0.329167
0.365208
0.264804
0.102855
0.0425665
0.155781
0.325261
0.36232
0.21893
0.0464465
0.0238568
0.154505
0.274425
0.255271
0.145551
0.0896512
0.147148
0.233363
0.226673
0.0987323
-0.0639366
-0.143271
-0.0881407
0.0516008
0.174685
0.210697
0.159749
0.0679535
-0.0198907
-0.0865783
-0.138573
-0.184391
-0.216646
-0.217873
-0.181102
-0.115493
-0.0353895
0.0422893
0.092796
0.0944967
0.0487285
-0.0226639
-0.0966281
-0.154633
-0.179225
-0.163779
-0.123949
-0.087418
-0.0718798
-0.0771894
-0.0938541
-0.110943
-0.118543
-0.112787
-0.10047
-0.0923267
-0.0903997
-0.0867975
-0.0746476
-0.0539598
-0.0293302
-0.0131746
-0.0297517
-0.0970758
-0.198308
-0.286368
-0.321324
-0.293355
-0.211359
-0.0889886
0.0488297
0.16003
0.20513
0.174135
0.0866604
-0.0247405
-0.122556
-0.171326
-0.15976
-0.118346
-0.102441
-0.144299
-0.210249
-0.209993
-0.0737989
0.158105
0.33568
0.321305
0.126136
-0.0814052
-0.118983
0.0401059
0.237409
0.278947
0.123819
-0.0712171
-0.0968653
0.0989111
0.336326
0.379092
0.205257
0.0415365
0.0920681
0.299032
0.426761
0.342036
0.1547
0.0776008
0.187066
0.361766
0.447116
0.424296
0.389295
0.408424
0.45642
0.484593
0.486707
0.484775
0.484852
0.471187
0.440442
0.420331
0.435358
0.459569
0.435693
0.358608
0.304431
0.333087
0.386424
0.349251
0.214762
0.115953
0.15365
0.256702
0.278751
0.197562
0.143712
0.218351
0.33912
0.322671
0.109354
-0.144668
-0.219303
-0.0520891
0.197676
0.293965
0.139491
-0.143679
-0.335101
-0.302174
-0.0815608
0.179819
0.335508
0.318854
0.161569
-0.0471658
-0.220973
-0.312468
-0.322111
-0.287223
-0.252947
-0.243108
-0.25256
-0.25774
-0.227882
-0.139305
-0.000760508
0.138631
0.224977
0.241695
0.20894
0.154743
0.0978879
0.0456022
-0.00829292
-0.07892
-0.172026
-0.267414
-0.328391
-0.333931
-0.29962
-0.26083
-0.238535
-0.233532
-0.247244
-0.287206
-0.346646
-0.392715
-0.387239
-0.320504
-0.220885
-0.127002
-0.0542703
0.00554248
0.0609248
0.109848
0.146292
0.161348
0.138321
0.0629159
-0.0546389
-0.176862
-0.264416
-0.300668
-0.294765
-0.271314
-0.258065
-0.270801
-0.298092
-0.301195
-0.236701
-0.0896277
0.103714
0.259082
0.283386
0.138968
-0.110327
-0.318073
-0.342763
-0.15226
0.133686
0.312812
0.252803
0.0147416
-0.180004
-0.147276
0.0755492
0.269445
0.274864
0.15928
0.112681
0.204917
0.312024
0.295668
0.189587
0.148871
0.237255
0.342266
0.329754
0.22315
0.166743
0.230915
0.328235
0.341661
0.273505
0.222412
0.244809
0.286254
0.281859
0.290918
0.304733
0.290216
0.240961
0.20689
0.242772
0.324443
0.349549
0.251031
0.0986824
0.0484746
0.168752
0.33994
0.366471
0.195455
-0.00861565
-0.0368464
0.12915
0.296814
0.288357
0.139756
0.0357241
0.0774312
0.175234
0.179031
0.0597598
-0.0720149
-0.0942339
0.0136623
0.165695
0.248454
0.208509
0.0791559
-0.066278
-0.176286
-0.238076
-0.258171
-0.245809
-0.207991
-0.148044
-0.0700869
0.0120261
0.0760403
0.104409
0.0908542
0.0372125
-0.0438358
-0.124604
-0.175807
-0.18667
-0.16519
-0.126012
-0.088484
-0.076252
-0.101922
-0.153019
-0.203119
-0.236341
-0.254179
-0.262623
-0.263529
-0.258332
-0.250264
-0.240285
-0.227641
-0.214329
-0.198959
-0.166752
-0.102545
-0.0208385
0.0336325
0.0257891
-0.0410625
-0.137889
-0.23346
-0.300205
-0.314139
-0.264294
-0.161434
-0.0341225
0.0812789
0.14874
0.145956
0.0804614
-0.0096744
-0.0737296
-0.0772109
-0.0330241
-0.00808674
-0.0706935
-0.20588
-0.298125
-0.228697
-0.0002136
0.240945
0.318822
0.185556
-0.0220858
-0.0964855
0.0436173
0.263625
0.336489
0.171999
-0.0716532
-0.130009
0.0787985
0.335567
0.359074
0.138077
-0.0617803
-0.0120287
0.230124
0.405089
0.346722
0.15255
0.0501418
0.13939
0.31275
0.411558
0.396856
0.346343
0.339931
0.38884
0.4481
0.466991
0.432903
0.381469
0.363721
0.390253
0.409572
0.361266
0.257885
0.189992
0.222487
0.299033
0.29507
0.178756
0.0721166
0.106582
0.245123
0.320445
0.254914
0.162067
0.184532
0.287659
0.292917
0.114083
-0.108045
-0.149948
0.0394733
0.26932
0.295253
0.0656064
-0.228365
-0.340145
-0.188151
0.0998317
0.318998
0.342115
0.178689
-0.0650967
-0.26573
-0.348218
-0.313622
-0.217618
-0.122483
-0.0660319
-0.0563976
-0.0759616
-0.0934685
-0.0839756
-0.040464
0.0264499
0.0904806
0.12043
0.104737
0.0616458
0.0174807
-0.0175656
-0.0476014
-0.0791679
-0.119753
-0.174934
-0.23104
-0.249205
-0.198335
-0.0944273
0.0073603
0.0653041
0.0837543
0.0877576
0.0804872
0.0398185
-0.0488595
-0.169112
-0.281332
-0.34802
-0.353788
-0.308408
-0.235583
-0.159496
-0.096546
-0.0502877
-0.0121162
0.0265024
0.0598795
0.0704918
0.0465599
-0.00594541
-0.0676521
-0.117092
-0.139309
-0.132074
-0.110055
-0.101729
-0.133638
-0.208627
-0.294557
-0.332567
-0.266319
-0.0856783
0.143989
0.300958
0.277778
0.065671
-0.211326
-0.361385
-0.265868
0.0104933
0.251645
0.269039
0.0808523
-0.0982766
-0.0764161
0.113137
0.262322
0.238594
0.132095
0.120493
0.232606
0.32102
0.27069
0.156429
0.138538
0.245916
0.34207
0.311882
0.20917
0.172122
0.240498
0.320997
0.322025
0.263565
0.230481
0.299256
0.320939
0.309773
0.27261
0.232969
0.224558
0.26703
0.328387
0.330943
0.232165
0.101451
0.0744271
0.199914
0.354797
0.354984
0.161741
-0.0514321
-0.0707067
0.121587
0.316774
0.307737
0.118035
-0.0375411
-0.00930141
0.124722
0.177787
0.0879237
-0.0284261
-0.0346203
0.0777352
0.199551
0.218724
0.1121
-0.0516359
-0.18063
-0.22979
-0.214071
-0.170762
-0.122398
-0.0740681
-0.028059
0.0102765
0.0333074
0.0318726
0.000569281
-0.0543304
-0.115649
-0.165057
-0.188564
-0.176737
-0.131724
-0.0742836
-0.0324174
-0.0218181
-0.0426815
-0.0872299
-0.139343
-0.174782
-0.176305
-0.148467
-0.111404
-0.0822131
-0.0663196
-0.0624356
-0.0674745
-0.0770378
-0.0904666
-0.116659
-0.163569
-0.216534
-0.239025
-0.204605
-0.122091
-0.0255881
0.0510072
0.0846315
0.062957
-0.0111929
-0.11531
-0.214794
-0.277379
-0.282619
-0.229283
-0.139457
-0.0499093
0.00460026
0.00415052
-0.0406728
-0.0771459
-0.0421706
0.0653962
0.154734
0.117332
-0.0570317
-0.246799
-0.29177
-0.134418
0.113288
0.248556
0.161128
-0.0462068
-0.144208
-0.00411468
0.258859
0.38093
0.222111
-0.0515365
-0.123545
0.102362
0.370831
0.374361
0.112892
-0.118925
-0.0715979
0.192469
0.391226
0.347978
0.164452
0.0658091
0.137419
0.264895
0.304698
0.245098
0.185606
0.201422
0.26182
0.283365
0.240923
0.197903
0.218287
0.271225
0.261518
0.164163
0.0824841
0.122706
0.238138
0.273262
0.172655
0.0705501
0.118956
0.278554
0.360547
0.270179
0.130496
0.11609
0.217526
0.25744
0.135122
-0.0294126
-0.0393768
0.134959
0.308753
0.27242
0.0104433
-0.267261
-0.318172
-0.0986316
0.20066
0.338309
0.22573
-0.0359041
-0.271708
-0.360669
-0.288087
-0.12507
0.0295394
0.10586
0.0916098
0.0212164
-0.0598018
-0.119567
-0.146285
-0.150102
-0.156368
-0.18728
-0.24675
-0.318962
-0.377597
-0.402174
-0.392938
-0.369101
-0.350822
-0.345298
-0.349362
-0.354999
-0.345278
-0.299192
-0.216656
-0.131525
-0.0839562
-0.0811719
-0.0952746
-0.0969092
-0.0822619
-0.0670728
-0.0674246
-0.0934986
-0.150032
-0.229588
-0.309097
-0.363649
-0.385155
-0.386125
-0.386255
-0.394929
-0.405133
-0.401763
-0.374021
-0.322434
-0.259402
-0.203922
-0.17116
-0.162599
-0.164021
-0.153504
-0.115307
-0.0524703
0.00961724
0.0315228
-0.0206338
-0.145753
-0.287809
-0.353113
-0.267425
-0.0415094
0.20661
0.31195
0.18522
-0.0958765
-0.323641
-0.319869
-0.0909673
0.16737
0.242872
0.109882
-0.0441012
-0.0236488
0.150052
0.271074
0.213258
0.0900693
0.0960368
0.241436
0.339939
0.264805
0.120661
0.102151
0.236329
0.354789
0.322568
0.203168
0.156269
0.230098
0.320502
0.325257
0.266032
0.306045
0.317243
0.291755
0.249287
0.234692
0.27194
0.326585
0.325032
0.233471
0.119866
0.10617
0.229009
0.364798
0.339667
0.128771
-0.0846032
-0.0864568
0.13032
0.339192
0.316678
0.0862954
-0.110408
-0.084285
0.0975464
0.209469
0.141762
0.00740124
-0.0269197
0.0602687
0.14774
0.124227
-0.00575871
-0.149023
-0.21507
-0.180862
-0.0913359
-0.00976818
0.0293854
0.026367
-0.00389332
-0.0461977
-0.0894681
-0.129211
-0.165741
-0.19651
-0.211495
-0.199114
-0.157953
-0.100365
-0.0434004
-0.00169163
0.0111396
-0.0128845
-0.0644137
-0.11854
-0.152011
-0.154722
-0.128715
-0.0844369
-0.0362055
0.00474526
0.0342548
0.0523665
0.0584528
0.0523157
0.0386475
0.0229038
0.000468389
-0.0426405
-0.113239
-0.198258
-0.269253
-0.296961
-0.264898
-0.177912
-0.0635387
0.0394179
0.101172
0.111136
0.0705728
-0.01273
-0.116413
-0.204439
-0.246852
-0.235296
-0.185375
-0.1365
-0.134648
-0.184108
-0.219409
-0.156308
0.0142774
0.192031
0.239213
0.100081
-0.132005
-0.269664
-0.190895
0.0344346
0.193163
0.129447
-0.0913987
-0.226723
-0.0926231
0.216152
0.382161
0.216583
-0.0856595
-0.15737
0.0961523
0.389519
0.404556
0.146622
-0.0885155
-0.0561191
0.187777
0.387264
0.383527
0.255818
0.181642
0.224043
0.299077
0.3174
0.289981
0.278724
0.294726
0.295768
0.268995
0.260199
0.297707
0.327548
0.279849
0.192955
0.193292
0.309473
0.389593
0.29561
0.125367
0.108538
0.279516
0.40549
0.299115
0.0795493
0.0144614
0.156567
0.279034
0.194722
0.0104332
-0.0273158
0.128648
0.265177
0.178497
-0.0931668
-0.316886
-0.292596
-0.037911
0.226112
0.274349
0.0731338
-0.210443
-0.367816
-0.310259
-0.103323
0.114823
0.231798
0.21172
0.0923294
-0.0568783
-0.180833
-0.257989
-0.293301
-0.304573
-0.313322
-0.33539
-0.369592
-0.39682
-0.396676
-0.365703
-0.318998
-0.277883
-0.256623
-0.256609
-0.268234
-0.279445
-0.284725
-0.286773
-0.292605
-0.309507
-0.340925
-0.380488
-0.414039
-0.430995
-0.431459
-0.420292
-0.395382
-0.347989
-0.279081
-0.211384
-0.175954
-0.184414
-0.219268
-0.253296
-0.273858
-0.285947
-0.299321
-0.320427
-0.351563
-0.387588
-0.413977
-0.416137
-0.392973
-0.357926
-0.326949
-0.306923
-0.292056
-0.267062
-0.213518
-0.119563
0.00454941
0.114686
0.145658
0.0540563
-0.134595
-0.316136
-0.360865
-0.209649
0.0578385
0.257148
0.233176
-0.00462258
-0.267967
-0.333808
-0.145422
0.118294
0.210518
0.0833703
-0.0513655
0.0152114
0.214478
0.291894
0.157405
0.0144079
0.0813106
0.287
0.367072
0.225275
0.0607397
0.0946686
0.279415
0.382517
0.300821
0.172033
0.166971
0.271803
0.342873
0.311269
0.284492
0.264513
0.259488
0.267855
0.290048
0.312939
0.30053
0.232574
0.154991
0.155467
0.257695
0.356874
0.309049
0.102965
-0.0892648
-0.0736114
0.147752
0.350594
0.312754
0.0572387
-0.163298
-0.134896
0.0881064
0.251522
0.193695
0.0124745
-0.0834512
-0.0270807
0.0591521
0.0406956
-0.0746593
-0.174406
-0.17386
-0.0823221
0.0272349
0.0852766
0.069018
-0.00196924
-0.0955436
-0.184234
-0.245849
-0.268091
-0.254664
-0.218347
-0.169558
-0.114231
-0.058401
-0.0129974
0.00688024
-0.00750129
-0.0493827
-0.102773
-0.153463
-0.1891