# vtk DataFile Version 3.0
PFC-RG simulation results
ASCII
DATASET STRUCTURED_POINTS
DIMENSIONS 256 256 1
ORIGIN 0 0 0
SPACING 1 1 1
POINT_DATA 65536
SCALARS psi double
LOOKUP_TABLE default
0.284011
0.288585
0.28961
0.285363
0.280055
0.2796
0.285029
0.290907
0.290867
0.28449
0.278047
0.278085
0.284577
0.290972
0.291064
0.285392
0.280239
0.280575
0.284687
0.28657
0.283411
0.279412
0.281243
0.289862
0.298072
0.297049
0.285128
0.26982
0.261464
0.264947
0.276718
0.288952
0.296213
0.298594
0.29957
0.301256
0.30113
0.293185
0.27312
0.243687
0.215507
0.201679
0.210023
0.23888
0.27855
0.315545
0.337139
0.336131
0.314206
0.281008
0.249228
0.229412
0.22702
0.241664
0.268239
0.299386
0.327822
0.347796
0.356212
0.353175
0.341168
0.32377
0.305465
0.291945
0.288709
0.297871
0.316225
0.336938
0.353493
0.362227
0.361566
0.349643
0.323809
0.283885
0.236585
0.195764
0.176134
0.184983
0.218489
0.264633
0.309215
0.340141
0.349382
0.333986
0.298125
0.254236
0.219693
0.208687
0.223843
0.254334
0.282025
0.29283
0.28557
0.271995
0.267499
0.279178
0.300346
0.315793
0.314294
0.297922
0.280101
0.273615
0.2791
0.285139
0.279792
0.263116
0.248761
0.251614
0.272924
0.298583
0.312694
0.311876
0.30578
0.305039
0.310567
0.314648
0.31122
0.303859
0.302584
0.312894
0.330078
0.34558
0.35648
0.36609
0.376737
0.38593
0.390132
0.389371
0.386623
0.383976
0.380989
0.376318
0.369632
0.361218
0.350225
0.334807
0.315051
0.295175
0.280688
0.273018
0.268884
0.26632
0.269712
0.285505
0.311491
0.332419
0.330744
0.304597
0.273379
0.26161
0.276049
0.299476
0.306595
0.286293
0.250849
0.225587
0.228892
0.259714
0.300525
0.329984
0.334662
0.313631
0.277189
0.241725
0.221846
0.223036
0.239235
0.256897
0.263146
0.254061
0.237716
0.228668
0.23718
0.26174
0.292145
0.319433
0.341393
0.359217
0.371116
0.37228
0.360076
0.337013
0.309406
0.284343
0.26712
0.25845
0.254451
0.251479
0.250407
0.254105
0.261569
0.267393
0.267113
0.261103
0.252686
0.244319
0.236838
0.231287
0.229885
0.234889
0.247399
0.26725
0.292986
0.321414
0.347662
0.366291
0.372781
0.364984
0.34411
0.314743
0.283352
0.256146
0.23795
0.231541
0.236508
0.247955
0.257642
0.258385
0.248595
0.234217
0.22615
0.23439
0.261662
0.299543
0.330379
0.335804
0.30879
0.261228
0.219943
0.210721
0.239507
0.28622
0.318496
0.316431
0.287872
0.260126
0.255597
0.273462
0.294002
0.299485
0.289717
0.278378
0.276786
0.283404
0.288777
0.287554
0.283254
0.282127
0.285184
0.287916
0.286718
0.283279
0.281921
0.284078
0.286975
0.287435
0.28644
0.288186
0.2857
0.281122
0.280179
0.285117
0.290974
0.290671
0.283505
0.276797
0.278058
0.286421
0.29331
0.291671
0.28349
0.277261
0.278664
0.284917
0.288617
0.286355
0.282367
0.283284
0.289758
0.29455
0.289761
0.275904
0.263076
0.262364
0.275771
0.294337
0.306047
0.305623
0.297055
0.287695
0.280839
0.273795
0.26221
0.245745
0.230284
0.225447
0.238863
0.270179
0.309023
0.339401
0.347961
0.330556
0.293663
0.251113
0.218219
0.205623
0.215802
0.243415
0.277891
0.307067
0.321535
0.317823
0.298101
0.267341
0.230881
0.193352
0.15803
0.126667
0.100503
0.0817629
0.0740393
0.0806964
0.102106
0.134184
0.170488
0.206771
0.243321
0.281656
0.318286
0.342692
0.343165
0.315719
0.268184
0.216807
0.178644
0.165115
0.179525
0.217492
0.268282
0.316422
0.345746
0.34603
0.319068
0.279551
0.247832
0.238537
0.251779
0.273525
0.285967
0.280347
0.263277
0.251292
0.257536
0.280639
0.305267
0.314914
0.305807
0.289911
0.283656
0.292101
0.303789
0.302113
0.282736
0.259
0.249122
0.258678
0.276501
0.286894
0.284389
0.276945
0.276005
0.284173
0.293125
0.293647
0.286501
0.281904
0.288842
0.306476
0.325819
0.338393
0.343084
0.345607
0.351435
0.358621
0.358867
0.346834
0.327121
0.30991
0.299971
0.292614
0.28117
0.266058
0.254521
0.252513
0.258692
0.266682
0.272788
0.280212
0.293965
0.311228
0.319121
0.305898
0.275854
0.250859
0.252249
0.278939
0.305651
0.305469
0.275523
0.240491
0.231014
0.257956
0.3041
0.337926
0.336682
0.300401
0.248433
0.205136
0.187133
0.197972
0.228946
0.26383
0.286749
0.290748
0.281314
0.27219
0.275986
0.295883
0.323856
0.345775
0.350905
0.338111
0.314215
0.286947
0.259915
0.234961
0.21667
0.211615
0.222167
0.243526
0.267909
0.290035
0.308344
0.323136
0.335043
0.344026
0.348855
0.348334
0.34344
0.33701
0.330638
0.322867
0.31124
0.295362
0.277083
0.258251
0.239534
0.221847
0.208011
0.202142
0.207529
0.225247
0.25364
0.28784
0.320292
0.343144
0.351215
0.34355
0.323721
0.299356
0.279761
0.271574
0.274805
0.282385
0.283773
0.270562
0.242032
0.208103
0.186651
0.194332
0.234738
0.291903
0.336155
0.341582
0.304608
0.249639
0.214165
0.221572
0.263145
0.305389
0.317968
0.29814
0.269703
0.258858
0.271007
0.289884
0.297023
0.289691
0.279859
0.278609
0.284761
0.289055
0.286513
0.281618
0.281392
0.286171
0.289573
0.287019
0.281609
0.280118
0.284461
0.289358
0.287175
0.283544
0.280363
0.281403
0.286776
0.291403
0.289605
0.281906
0.275918
0.278717
0.28843
0.295174
0.291451
0.280653
0.273772
0.277514
0.287244
0.292586
0.289107
0.282626
0.281573
0.286681
0.289918
0.284036
0.271916
0.26507
0.272498
0.291303
0.30821
0.310547
0.296612
0.276055
0.260881
0.255862
0.256663
0.256645
0.255008
0.258077
0.272973
0.299876
0.329276
0.346137
0.337881
0.301558
0.246403
0.190418
0.152967
0.146666
0.171762
0.216045
0.261052
0.290422
0.294766
0.272284
0.2279
0.171573
0.114967
0.0678399
0.0361665
0.0217541
0.0223824
0.0325448
0.0449025
0.0520537
0.0488163
0.0346408
0.0140127
-0.00622459
-0.0200845
-0.0227904
-0.00894145
0.0271456
0.0870189
0.1635
0.24104
0.301182
0.329498
0.320655
0.280074
0.222003
0.165279
0.128732
0.125884
0.159716
0.219587
0.283879
0.328982
0.340715
0.322072
0.29106
0.26947
0.268945
0.283935
0.296896
0.29259
0.270907
0.247583
0.241652
0.258979
0.286425
0.302805
0.297815
0.281786
0.275536
0.289461
0.312909
0.324804
0.314573
0.291865
0.275966
0.276762
0.286341
0.288663
0.277258
0.262459
0.259725
0.271687
0.284751
0.28434
0.270821
0.258123
0.257698
0.266646
0.272719
0.269608
0.264163
0.266648
0.276037
0.279662
0.268731
0.249707
0.236611
0.234534
0.236384
0.235841
0.237039
0.24794
0.26761
0.28531
0.292463
0.291962
0.29299
0.297689
0.296876
0.281597
0.257987
0.246536
0.262551
0.296998
0.320367
0.309421
0.27158
0.240845
0.247029
0.288129
0.331238
0.339544
0.300721
0.234574
0.177468
0.15801
0.181616
0.231622
0.282707
0.315138
0.321892
0.308701
0.289484
0.278592
0.282102
0.293971
0.300296
0.288356
0.254446
0.204891
0.15101
0.103271
0.067763
0.0470019
0.042962
0.0585575
0.0944759
0.143877
0.193117
0.229836
0.250309
0.25796
0.256647
0.247758
0.232763
0.215849
0.203185
0.200271
0.20921
0.227479
0.249275
0.268529
0.280909
0.28335
0.272858
0.246879
0.20567
0.154356
0.102048
0.0588628
0.033539
0.0319676
0.0551839
0.0982714
0.152164
0.206959
0.25388
0.285889
0.299461
0.296887
0.286467
0.279132
0.282878
0.297856
0.314375
0.316708
0.29242
0.242781
0.186892
0.154115
0.167009
0.224226
0.296491
0.342084
0.334888
0.285126
0.233168
0.218347
0.247665
0.292083
0.314525
0.30279
0.276421
0.263335
0.272254
0.288641
0.294419
0.287303
0.279444
0.280585
0.287283
0.289635
0.284774
0.279742
0.281418
0.2875
0.290022
0.286001
0.28099
0.281369
0.286063
0.285238
0.280161
0.280356
0.286559
0.29206
0.289819
0.281079
0.275111
0.27928
0.290176
0.296316
0.290372
0.277668
0.27111
0.277515
0.290243
0.296342
0.290464
0.280144
0.276668
0.282165
0.287606
0.284174
0.274741
0.271667
0.282855
0.301425
0.310722
0.29996
0.274533
0.251061
0.243302
0.252373
0.268591
0.281586
0.288856
0.295571
0.306859
0.320032
0.323921
0.306248
0.263306
0.205001
0.151462
0.123058
0.13045
0.170331
0.227507
0.280795
0.310989
0.308616
0.277136
0.229487
0.181044
0.143843
0.123816
0.120764
0.130878
0.150013
0.174934
0.202731
0.230474
0.254898
0.27137
0.274146
0.259692
0.230238
0.192996
0.155286
0.120729
0.0901237
0.065093
0.0506172
0.0546174
0.084323
0.14039
0.212826
0.283078
0.331426
0.344191
0.317889
0.261047
0.193164
0.139227
0.120045
0.142846
0.197
0.257994
0.299961
0.310026
0.295379
0.277243
0.275029
0.291942
0.312607
0.316128
0.294488
0.261126
0.241084
0.249127
0.275928
0.296285
0.292769
0.272426
0.259351
0.270298
0.298107
0.319292
0.317492
0.299204
0.285887
0.290691
0.305095
0.309996
0.298279
0.282467
0.279214
0.290345
0.302386
0.302834
0.293168
0.28493
0.285705
0.292159
0.296728
0.297444
0.297982
0.300057
0.30059
0.29759
0.294424
0.294833
0.296507
0.294431
0.289976
0.290879
0.300194
0.309934
0.30978
0.299993
0.290909
0.289188
0.288838
0.279886
0.264899
0.260889
0.280267
0.311437
0.324768
0.302256
0.260111
0.237528
0.258926
0.307421
0.337428
0.31458
0.246029
0.17477
0.145552
0.173862
0.240183
0.306905
0.341934
0.334629
0.297101
0.25315
0.223808
0.217492
0.228391
0.241421
0.240712
0.218533
0.179748
0.138892
0.110948
0.103238
0.113888
0.135989
0.162451
0.188062
0.209958
0.226316
0.234398
0.230823
0.21523
0.192404
0.168339
0.145008
0.121055
0.09698
0.0773296
0.0674992
0.069634
0.0818947
0.100766
0.123561
0.14891
0.175519
0.201159
0.222921
0.238113
0.244989
0.242911
0.231695
0.211276
0.182999
0.151172
0.122294
0.102565
0.0966316
0.107452
0.134855
0.173073
0.210949
0.236626
0.243603
0.234708
0.221958
0.221368
0.24373
0.285734
0.327984
0.34352
0.314254
0.246262
0.172445
0.136439
0.16381
0.240036
0.316083
0.343338
0.311601
0.25615
0.226148
0.242166
0.282208
0.307978
0.30235
0.280651
0.26882
0.275625
0.288265
0.291409
0.284578
0.279169
0.282385
0.289063
0.28992
0.283897
0.278876
0.281116
0.287615
0.290523
0.286943
0.281664
0.280582
0.283074
0.282559
0.286113
0.290234
0.288699
0.2812
0.27586
0.280316
0.291325
0.296652
0.288799
0.274782
0.26949
0.279246
0.294276
0.299086
0.289117
0.275233
0.27134
0.279428
0.288531
0.288093
0.280404
0.277788
0.287525
0.301399
0.302469
0.283017
0.254543
0.238571
0.247493
0.274406
0.300722
0.312578
0.310061
0.302511
0.296603
0.289104
0.270536
0.235432
0.18979
0.150297
0.136319
0.159156
0.214316
0.282036
0.336396
0.357312
0.33878
0.290389
0.232441
0.186854
0.168052
0.17892
0.212677
0.256997
0.298486
0.327325
0.339612
0.33579
0.318599
0.293727
0.270113
0.256256
0.255636
0.266582
0.28561
0.309081
0.332056
0.34759
0.347969
0.326739
0.281465
0.217712
0.150985
0.102253
0.088689
0.116639
0.179742
0.260093
0.332367
0.372028
0.365417
0.316051
0.244506
0.180894
0.151513
0.165438
0.209201
0.255156
0.278746
0.274284
0.257795
0.253769
0.274555
0.308604
0.329343
0.318388
0.2835
0.253581
0.252872
0.278224
0.302215
0.299832
0.272928
0.248112
0.249549
0.274534
0.297552
0.29807
0.281662
0.271822
0.283038
0.305698
0.318037
0.309904
0.292421
0.285113
0.295868
0.31467
0.326017
0.325338
0.321902
0.326873
0.340647
0.35304
0.354806
0.347231
0.340163
0.341347
0.348532
0.352291
0.346195
0.333471
0.323059
0.319047
0.315511
0.304317
0.286993
0.274765
0.275207
0.282391
0.284304
0.279039
0.27872
0.293548
0.31394
0.315449
0.28608
0.246129
0.233786
0.265786
0.314478
0.329384
0.284385
0.205393
0.150993
0.163587
0.2357
0.318594
0.36064
0.340721
0.274917
0.199806
0.14935
0.139018
0.162086
0.197675
0.224274
0.231054
0.221468
0.20866
0.207274
0.225664
0.26215
0.306932
0.348011
0.377246
0.391064
0.387742
0.366742
0.330993
0.287969
0.246952
0.215809
0.19889
0.195632
0.200833
0.208224
0.214746
0.220686
0.225955
0.227676
0.222336
0.209464
0.192317
0.175393
0.162189
0.155607
0.159219
0.176895
0.210572
0.257735
0.310336
0.356538
0.385445
0.391678
0.376249
0.34402
0.301734
0.258043
0.222668
0.203304
0.20196
0.213268
0.225568
0.225434
0.205451
0.171335
0.142628
0.143539
0.187398
0.263359
0.335893
0.362408
0.321732
0.234526
0.15598
0.139332
0.194934
0.280191
0.333483
0.324519
0.276319
0.23928
0.243573
0.276277
0.301799
0.300124
0.282415
0.272291
0.278556
0.289452
0.290613
0.28253
0.2775
0.282558
0.290861
0.291427
0.283528
0.27726
0.2804
0.288757
0.291898
0.28632
0.279369
0.283452
0.288234
0.29071
0.287274
0.279891
0.276154
0.281783
0.292549
0.296554
0.287186
0.272601
0.268713
0.281423
0.298337
0.301268
0.286359
0.268833
0.266385
0.279966
0.293832
0.293995
0.283563
0.277659
0.284531
0.294876
0.291804
0.270849
0.247815
0.244936
0.269094
0.304234
0.325236
0.319203
0.29391
0.267497
0.25141
0.242549
0.230361
0.210714
0.192795
0.192777
0.220732
0.271829
0.327202
0.362621
0.359935
0.315933
0.244409
0.170709
0.121381
0.112775
0.143758
0.197293
0.250198
0.28399
0.290259
0.270523
0.233228
0.188271
0.141069
0.0918847
0.0416154
-0.00328901
-0.0331222
-0.0410028
-0.0257231
0.00918512
0.0568967
0.109485
0.161933
0.213842
0.264532
0.30611
0.323849
0.305423
0.250386
0.172656
0.0966309
0.0493717
0.0503503
0.102471
0.189544
0.282167
0.348882
0.368733
0.340709
0.284998
0.233414
0.212025
0.225967
0.256625
0.275342
0.265773
0.237765
0.220298
0.236416
0.280938
0.322264
0.329108
0.299295
0.262789
0.253981
0.278707
0.30904
0.312335
0.284908
0.254929
0.251618
0.274748
0.296834
0.293738
0.269948
0.252295
0.260314
0.285397
0.301019
0.29235
0.272042
0.264845
0.279529
0.30072
0.308707
0.302057
0.296444
0.303184
0.315403
0.318754
0.310826
0.30306
0.303718
0.306513
0.300656
0.28712
0.277903
0.279588
0.284094
0.279178
0.265098
0.255804
0.262061
0.277457
0.285965
0.282539
0.279735
0.289882
0.305171
0.303192
0.27503
0.242859
0.241656
0.279691
0.321653
0.318872
0.259479
0.186541
0.162565
0.213243
0.303282
0.364197
0.347512
0.259052
0.150043
0.0780645
0.0716462
0.121003
0.192711
0.252292
0.280864
0.280232
0.267342
0.262193
0.275697
0.304308
0.333556
0.347323
0.336081
0.300933
0.252135
0.20265
0.16154
0.132396
0.117619
0.121001
0.144374
0.183333
0.228561
0.271122
0.305519
0.329725
0.344689
0.352944
0.355866
0.35275
0.343189
0.328851
0.311332
0.289301
0.259642
0.221439
0.177957
0.135482
0.101734
0.084472
0.0886622
0.113661
0.154088
0.203338
0.254988
0.301525
0.334127
0.345609
0.334492
0.307305
0.277287
0.258778
0.258927
0.271405
0.277708
0.257327
0.202394
0.128304
0.0714386
0.0706322
0.139907
0.25133
0.344911
0.365417
0.303539
0.207718
0.15067
0.172767
0.249981
0.317288
0.327368
0.289195
0.250983
0.248987
0.27608
0.298462
0.295983
0.279986
0.273624
0.282944
0.293039
0.290011
0.278724
0.274829
0.283583
0.29355
0.292191
0.281896
0.275964
0.281081
0.289647
0.290872
0.284663
0.285785
0.290215
0.288381
0.280957
0.276495
0.281844
0.292583
0.296093
0.285959
0.27146
0.26911
0.283768
0.301
0.301457
0.282675
0.263249
0.263345
0.28263
0.300671
0.299579
0.283234
0.271388
0.275952
0.287386
0.286793
0.269753
0.254095
0.261463
0.292489
0.322837
0.324956
0.293515
0.249258
0.219273
0.214958
0.227386
0.240552
0.247716
0.25605
0.276903
0.311461
0.3449
0.354161
0.322418
0.249841
0.155697
0.070927
0.0241923
0.0294072
0.0810502
0.156762
0.225367
0.259645
0.248003
0.196628
0.122548
0.0458181
-0.0155021
-0.05056
-0.0601184
-0.0543757
-0.0448768
-0.038582
-0.0381792
-0.0444951
-0.0569205
-0.0733807
-0.0917897
-0.109969
-0.121391
-0.112284
-0.0680095
0.0143764
0.119939
0.221838
0.292188
0.310491
0.270443
0.185314
0.0860368
0.00965217
-0.0148939
0.0228588
0.110658
0.216803
0.302924
0.341843
0.330902
0.293089
0.262748
0.262471
0.28621
0.304651
0.291197
0.247615
0.206255
0.203463
0.245856
0.30092
0.324345
0.301177
0.260304
0.245431
0.271161
0.309951
0.32281
0.300157
0.269712
0.264884
0.288869
0.312313
0.306245
0.274238
0.24812
0.252202
0.277293
0.293683
0.285624
0.266084
0.257555
0.265758
0.277093
0.27832
0.271337
0.266694
0.268581
0.272462
0.2747
0.276232
0.275831
0.268018
0.252976
0.242136
0.246064
0.259579
0.266982
0.262515
0.258222
0.267864
0.287571
0.298992
0.292211
0.279175
0.278604
0.290162
0.292979
0.274049
0.250837
0.255269
0.293125
0.327379
0.312331
0.246526
0.184633
0.188186
0.262332
0.344966
0.35919
0.277832
0.144333
0.0378384
0.0165659
0.083314
0.192448
0.285524
0.326507
0.315296
0.277453
0.243245
0.230277
0.237068
0.247589
0.24169
0.206268
0.141485
0.0591581
-0.0235614
-0.0906076
-0.130634
-0.13874
-0.115661
-0.0652346
0.00566762
0.0844118
0.152992
0.196243
0.210089
0.200448
0.176372
0.146453
0.118885
0.100522
0.0956719
0.106656
0.133715
0.172224
0.211538
0.239385
0.246993
0.22911
0.182112
0.107328
0.0167623
-0.0687358
-0.129537
-0.155156
-0.144032
-0.0999874
-0.0305152
0.0530862
0.136074
0.202859
0.241777
0.250706
0.239798
0.228267
0.234879
0.265628
0.305858
0.324012
0.290068
0.199842
0.0876647
0.0139644
0.0291913
0.135019
0.27322
0.359933
0.346899
0.260627
0.181216
0.173895
0.234772
0.302545
0.322053
0.29343
0.26026
0.257724
0.279705
0.295722
0.290238
0.276688
0.275348
0.287081
0.294997
0.288307
0.276042
0.274166
0.28476
0.294291
0.291565
0.28114
0.27608
0.281379
0.289421
0.29096
0.286803
0.285716
0.281941
0.279361
0.283368
0.291842
0.294412
0.284698
0.271192
0.270243
0.286201
0.302974
0.300284
0.27783
0.258196
0.262866
0.287853
0.307269
0.301401
0.277714
0.261543
0.267521
0.2844
0.289794
0.277431
0.265278
0.274467
0.302465
0.321183
0.30425
0.255612
0.208568
0.195775
0.221462
0.26233
0.292086
0.302777
0.304548
0.309096
0.314464
0.304355
0.262133
0.186773
0.0971061
0.0228624
-0.00872552
0.0156807
0.0881702
0.180946
0.258604
0.29356
0.275792
0.215302
0.13728
0.0694053
0.0282262
0.0162151
0.0288836
0.0601509
0.102427
0.14779
0.190744
0.22698
0.249864
0.251882
0.230622
0.191141
0.14111
0.0850428
0.0253485
-0.0318449
-0.0750167
-0.0916823
-0.0722186
-0.0114834
0.0860446
0.199447
0.294521
0.339315
0.319029
0.241538
0.13557
0.0417425
-0.00357514
0.0158841
0.08968
0.184819
0.259927
0.288048
0.274588
0.253044
0.257648
0.293834
0.332348
0.333912
0.286442
0.221955
0.192393
0.221959
0.282171
0.318071
0.301478
0.257317
0.235695
0.259713
0.303658
0.322283
0.29917
0.263126
0.255671
0.285355
0.319283
0.321098
0.29125
0.263885
0.26687
0.292916
0.311973
0.305791
0.284808
0.272716
0.280043
0.296049
0.304294
0.300847
0.295337
0.297815
0.308118
0.316856
0.314806
0.302418
0.290812
0.290643
0.298915
0.301666
0.292391
0.28232
0.286451
0.302457
0.311541
0.301649
0.283279
0.276576
0.285217
0.291228
0.279605
0.262077
0.265813
0.296207
0.320544
0.300049
0.23927
0.193426
0.215616
0.294777
0.354429
0.321069
0.195554
0.0572347
-0.00102462
0.0556243
0.185068
0.306258
0.355128
0.318553
0.23171
0.148249
0.106118
0.110123
0.137373
0.156943
0.148355
0.109575
0.0549845
0.00587276
-0.0210451
-0.0209486
0.000230326
0.0326994
0.068431
0.103121
0.13447
0.158718
0.16855
0.156615
0.122589
0.0746677
0.0229904
-0.0265442
-0.0711649
-0.106851
-0.127968
-0.130543
-0.113933
-0.0803695
-0.0349045
0.0156282
0.0663521
0.116012
0.16201
0.195103
0.203442
0.183209
0.142843
0.0958272
0.0514414
0.0131557
-0.0167895
-0.0337119
-0.0310256
-0.00437697
0.0431069
0.0983093
0.141719
0.156911
0.141491
0.112953
0.102822
0.137959
0.218433
0.308562
0.352396
0.30914
0.187604
0.0527782
-0.00921706
0.0478834
0.189251
0.319525
0.356752
0.29816
0.216567
0.189643
0.231424
0.291333
0.314149
0.293491
0.266304
0.264758
0.28369
0.295463
0.287072
0.273282
0.274111
0.288571
0.297504
0.289424
0.274947
0.272287
0.284065
0.295105
0.292472
0.280984
0.27549
0.281821
0.290816
0.285053
0.28015
0.27941
0.284799
0.292317
0.293376
0.283735
0.271559
0.271646
0.287728
0.303712
0.299114
0.274349
0.254654
0.263362
0.293641
0.313456
0.30066
0.268111
0.249429
0.261719
0.288132
0.299171
0.286559
0.270933
0.275589
0.296955
0.30582
0.279397
0.229854
0.197108
0.21155
0.264744
0.317607
0.336263
0.318403
0.286498
0.260596
0.240247
0.209955
0.158788
0.0954254
0.0464947
0.0394844
0.0844062
0.168062
0.260941
0.328762
0.345325
0.304499
0.223668
0.134891
0.0705078
0.050919
0.0775273
0.133661
0.195057
0.242665
0.267518
0.268759
0.252837
0.232713
0.220603
0.21925
0.223185
0.22852
0.238044
0.255303
0.275871
0.286825
0.274374
0.230627
0.156146
0.0630602
-0.0224324
-0.067212
-0.0481206
0.0346559
0.15651
0.277311
0.356284
0.368242
0.313838
0.21854
0.123339
0.0695865
0.0788992
0.138215
0.205733
0.23963
0.228671
0.200875
0.200851
0.24978
0.32076
0.35745
0.326234
0.252701
0.201755
0.216368
0.276448
0.320528
0.307907
0.257922
0.226888
0.247668
0.295603
0.316877
0.288518
0.243528
0.233077
0.269409
0.314594
0.324924
0.297555
0.268723
0.270681
0.298037
0.31891
0.313929
0.296194
0.291232
0.305184
0.321313
0.324696
0.319572
0.31902
0.325397
0.328854
0.323379
0.316586
0.319342
0.329074
0.330343
0.314818
0.2951
0.290748
0.302133
0.308019
0.293221
0.270285
0.264584
0.281039
0.296623
0.290144
0.271334
0.269506
0.292965
0.311431
0.289559
0.235762
0.204318
0.238071
0.311896
0.344975
0.278235
0.140114
0.0308931
0.0369011
0.156242
0.30259
0.374982
0.328839
0.196792
0.0557927
-0.0258772
-0.0242912
0.0372372
0.111556
0.159565
0.169944
0.157184
0.145787
0.154759
0.190292
0.245456
0.304662
0.351726
0.376242
0.374906
0.348887
0.30157
0.239109
0.172023
0.114554
0.0787851
0.0678579
0.0750693
0.0891321
0.100904
0.107155
0.109121
0.107773
0.101445
0.0875265
0.0651456
0.0370134
0.0106623
-0.002072
0.0107184
0.0547316
0.125033
0.206944
0.282545
0.338058
0.366829
0.367746
0.342849
0.296846
0.238818
0.182877
0.144308
0.132389
0.143756
0.160803
0.158052
0.117469
0.0459206
-0.0198699
-0.0300837
0.0446902
0.184675
0.320824
0.372011
0.301771
0.153637
0.0302841
0.0209691
0.130432
0.273309
0.346572
0.317705
0.244187
0.208202
0.236939
0.288305
0.308107
0.288485
0.265641
0.269806
0.291102
0.298696
0.283066
0.266563
0.272025
0.292668
0.302031
0.288952
0.271009
0.270515
0.286305
0.297564
0.291759
0.278814
0.275533
0.283798
0.283283
0.280777
0.283819
0.290313
0.291927
0.283862
0.273273
0.27375
0.288619
0.302708
0.296876
0.27229
0.25435
0.265946
0.298411
0.31672
0.297707
0.258374
0.239234
0.259638
0.296365
0.310617
0.29144
0.26551
0.263359
0.28275
0.291831
0.267899
0.227594
0.21336
0.248869
0.311012
0.348875
0.330419
0.26947
0.208034
0.175945
0.169681
0.166638
0.153572
0.139715
0.146534
0.187506
0.254701
0.320862
0.354461
0.335545
0.263341
0.157308
0.0525327
-0.0142534
-0.0229098
0.0213921
0.0937427
0.162488
0.203234
0.208222
0.18427
0.141409
0.0853468
0.0211817
-0.0406499
-0.0874289
-0.112309
-0.11583
-0.100011
-0.0645954
-0.0102903
0.0566784
0.126083
0.189143
0.238707
0.263445
0.247506
0.181997
0.0781688
-0.0316148
-0.106729
-0.116026
-0.0513668
0.0681855
0.203475
0.310561
0.357254
0.336133
0.269584
0.201063
0.171652
0.193089
0.237902
0.25846
0.226686
0.164736
0.132772
0.174744
0.270371
0.346835
0.345301
0.277337
0.213741
0.215206
0.273906
0.324762
0.31485
0.258738
0.220645
0.242853
0.299525
0.32722
0.296196
0.241516
0.22173
0.254572
0.301274
0.313005
0.284045
0.252648
0.253501
0.28065
0.301897
0.29977
0.286108
0.27956
0.283071
0.288029
0.289619
0.289057
0.285856
0.278345
0.27145
0.274323
0.286553
0.293899
0.284874
0.268248
0.264958
0.280371
0.293654
0.283185
0.257407
0.247744
0.268388
0.295836
0.298242
0.277285
0.266128
0.283622
0.305092
0.292075
0.247054
0.221054
0.254433
0.317932
0.331165
0.24863
0.12048
0.0551388
0.11636
0.259391
0.367323
0.347409
0.200253
0.0116502
-0.114057
-0.120879
-0.0252805
0.10729
0.209316
0.248385
0.236174
0.21031
0.204422
0.227533
0.264361
0.291329
0.291913
0.263021
0.213496
0.157428
0.105897
0.0619541
0.023793
-0.00605166
-0.0151422
0.0103337
0.0692899
0.143109
0.210835
0.262321
0.297349
0.318713
0.328206
0.326083
0.311792
0.285013
0.246217
0.196054
0.134246
0.061432
-0.0140415
-0.0721823
-0.0914544
-0.0668011
-0.0139021
0.0462112
0.103261
0.158233
0.212503
0.259759
0.288022
0.288257
0.262025
0.223893
0.196592
0.197506
0.222347
0.240165
0.210501
0.115368
-0.0171421
-0.118599
-0.118974
0.00264941
0.191884
0.342886
0.366184
0.257791
0.11075
0.0457694
0.110908
0.242413
0.329698
0.320714
0.259779
0.226415
0.249705
0.2907
0.300917
0.27925
0.263231
0.275826
0.298268
0.299279
0.277709
0.262525
0.273395
0.29576
0.301612
0.285795
0.270097
0.273215
0.28847
0.295955
0.288696
0.278385
0.277565
0.284815
0.287227
0.289218
0.288528
0.282494
0.275136
0.27647
0.289546
0.301301
0.29441
0.27061
0.255101
0.269647
0.303005
0.317851
0.292246
0.248691
0.232872
0.262867
0.307369
0.31964
0.288945
0.250607
0.244166
0.268958
0.287988
0.273908
0.24319
0.238546
0.278436
0.330267
0.338455
0.279774
0.188721
0.126243
0.124969
0.166912
0.210934
0.234619
0.247106
0.267752
0.300136
0.325889
0.317976
0.259894
0.158181
0.0407191
-0.0573329
-0.107951
-0.0977076
-0.0327818
0.0588256
0.137234
0.170433
0.148359
0.0843256
0.00690997
-0.0551599
-0.0884069
-0.0980298
-0.0972637
-0.0956024
-0.0964237
-0.100517
-0.10807
-0.11859
-0.131182
-0.145055
-0.158534
-0.165386
-0.151735
-0.101321
-0.00997017
0.103113
0.199968
0.242251
0.210521
0.114661
-0.00840593
-0.110457
-0.153082
-0.120374
-0.0214547
0.111608
0.232156
0.298657
0.298288
0.257203
0.22576
0.240941
0.291453
0.321356
0.281326
0.184394
0.10566
0.116272
0.213023
0.316263
0.342595
0.283594
0.211738
0.205187
0.267891
0.32919
0.323286
0.260927
0.214989
0.238355
0.306161
0.345118
0.315044
0.251036
0.221139
0.250359
0.298045
0.310338
0.28074
0.249003
0.249068
0.273713
0.291926
0.287282
0.270493
0.260924
0.265671
0.276427
0.280647
0.273892
0.26376
0.261856
0.269614
0.274509
0.265327
0.249636
0.247807
0.26657
0.286606
0.284556
0.264143
0.254466
0.273321
0.301607
0.305444
0.280743
0.260479
0.271362
0.296269
0.295405
0.262142
0.239042
0.265081
0.316021
0.319113
0.237668
0.129532
0.100244
0.190895
0.323335
0.366048
0.253337
0.0417582
-0.138837
-0.184151
-0.0814091
0.0961837
0.248109
0.308951
0.27586
0.195163
0.124548
0.0969584
0.106383
0.119598
0.102847
0.0429089
-0.049452
-0.149695
-0.23316
-0.283867
-0.297442
-0.279109
-0.237751
-0.178754
-0.102845
-0.0166399
0.0586874
0.0988699
0.0980281
0.0724986
0.0439499
0.0239368
0.0134548
0.0111286
0.0182299
0.0374031
0.0690412
0.10787
0.139584
0.141768
0.0964328
0.00741409
-0.0982597
-0.190655
-0.256013
-0.294898
-0.308489
-0.292168
-0.241031
-0.158276
-0.0584236
0.0355584
0.0997001
0.12058
0.107256
0.0917978
0.110668
0.176013
0.258731
0.299886
0.247963
0.100899
-0.0775006
-0.185
-0.144413
0.034788
0.248335
0.36387
0.32254
0.189403
0.0964261
0.12302
0.230119
0.313668
0.314623
0.266467
0.240313
0.26182
0.294595
0.296481
0.271875
0.259151
0.277164
0.30213
0.301465
0.276734
0.259882
0.271164
0.294936
0.302193
0.287126
0.270903
0.272561
0.286987
0.295184
0.28917
0.279184
0.288227
0.291022
0.288257
0.281704
0.276299
0.278522
0.289581
0.299105
0.29269
0.271222
0.257279
0.272
0.30479
0.317569
0.287765
0.241203
0.228942
0.268467
0.319144
0.32532
0.279081
0.229049
0.225066
0.263707
0.296701
0.289145
0.258459
0.250627
0.282809
0.318286
0.302741
0.22438
0.133806
0.100179
0.147275
0.234283
0.29824
0.310743
0.290972
0.270197
0.254353
0.223339
0.1583
0.0625592
-0.0390234
-0.112732
-0.130893
-0.0853818
0.00689237
0.111646
0.19144
0.21826
0.183872
0.104373
0.0123815
-0.0593276
-0.0908855
-0.0794182
-0.0358324
0.0234101
0.0850608
0.141309
0.185581
0.210575
0.211417
0.18791
0.143249
0.0819598
0.00856155
-0.0720134
-0.150354
-0.208303
-0.22221
-0.174747
-0.0677729
0.0720528
0.200548
0.275181
0.273653
0.199899
0.0807804
-0.0400904
-0.115131
-0.11327
-0.0366617
0.0779143
0.17483
0.210781
0.188732
0.162346
0.191303
0.279068
0.358305
0.350431
0.246697
0.128428
0.0972026
0.177687
0.291677
0.33466
0.279867
0.201196
0.190965
0.261444
0.335212
0.332303
0.257998
0.196
0.215095
0.293611
0.346777
0.323603
0.260094
0.230662
0.261868
0.310847
0.323985
0.296756
0.267801
0.267281
0.286845
0.299671
0.295888
0.28926
0.294041
0.306276
0.312048
0.308078
0.305474
0.311926
0.317763
0.307957
0.286288
0.275919
0.289452
0.307952
0.303173
0.277379
0.264406
0.285289
0.316765
0.318033
0.283745
0.253462
0.261847
0.292782
0.299965
0.269856
0.243438
0.262468
0.306778
0.309026
0.238288
0.152805
0.147238
0.242094
0.342277
0.321914
0.150995
-0.0675161
-0.184236
-0.124334
0.0634658
0.254938
0.340174
0.287287
0.14692
0.00528714
-0.0733802
-0.0769093
-0.039182
-0.00996158
-0.0214969
-0.0722415
-0.135321
-0.180029
-0.189733
-0.16702
-0.126582
-0.0830738
-0.0430143
-0.00614954
0.0279711
0.0536907
0.0573925
0.0251787
-0.0432886
-0.130141
-0.210716
-0.268911
-0.302662
-0.318072
-0.320032
-0.307899
-0.278429
-0.22962
-0.160806
-0.074416
0.0167392
0.0876479
0.115235
0.0962203
0.0478907
-0.00798861
-0.0595517
-0.106056
-0.149567
-0.186578
-0.206256
-0.19602
-0.151745
-0.0866477
-0.03008
-0.0112974
-0.0362419
-0.0760586
-0.0801089
-0.0096263
0.128177
0.270915
0.330636
0.252251
0.0634461
-0.126274
-0.18992
-0.0755927
0.143942
0.319167
0.344249
0.24545
0.147723
0.149252
0.233198
0.305417
0.305499
0.262882
0.245287
0.273269
0.304188
0.295719
0.261636
0.250158
0.278279
0.310079
0.30552
0.272337
0.253623
0.271162
0.300178
0.304929
0.283834
0.266615
0.273323
0.291495
0.297262
0.286736
0.288043
0.28606
0.282065
0.279266
0.281674
0.289553
0.295536
0.289596
0.27267
0.262308
0.275658
0.303973
0.313717
0.283903
0.239033
0.229961
0.274314
0.327263
0.326702
0.265985
0.20633
0.209131
0.266825
0.31419
0.304581
0.259807
0.238072
0.261981
0.291682
0.272007
0.198951
0.131874
0.13692
0.219825
0.316892
0.352987
0.307362
0.222568
0.153346
0.114069
0.0788355
0.0243693
-0.0388523
-0.076802
-0.0624168
0.00650376
0.10869
0.209278
0.272621
0.275881
0.217616
0.118128
0.0125408
-0.0625556
-0.0848281
-0.0551428
0.00581611
0.0695811
0.113672
0.131908
0.135258
0.140011
0.152901
0.168387
0.178036
0.179022
0.175145
0.172474
0.171812
0.16243
0.12579
0.0505629
-0.0536063
-0.155604
-0.215612
-0.203836
-0.115737
0.0246901
0.173834
0.284067
0.321194
0.277345
0.174391
0.0575873
-0.0194236
-0.0198446
0.0489737
0.130699
0.157368
0.111241
0.0520928
0.0683168
0.185988
0.328751
0.381626
0.302601
0.169401
0.108065
0.170582
0.286155
0.337073
0.280334
0.188748
0.169718
0.247913
0.338232
0.340647
0.25294
0.172957
0.186954
0.274685
0.340299
0.324867
0.264288
0.23483
0.263954
0.310827
0.32508
0.302944
0.279109
0.278725
0.294095
0.305446
0.307414
0.307271
0.308237
0.307226
0.30566
0.310058
0.318969
0.319772
0.306583
0.294284
0.301339
0.319757
0.31936
0.289925
0.263188
0.274149
0.309208
0.318288
0.281802
0.241358
0.247361
0.2909
0.313395
0.284352
0.243931
0.249403
0.293231
0.306238
0.249454
0.177077
0.180139
0.268816
0.339329
0.276925
0.085715
-0.0990053
-0.132249
0.0118421
0.224229
0.354023
0.317345
0.142944
-0.0636086
-0.197115
-0.212162
-0.135154
-0.0331585
0.0337485
0.0451287
0.0226567
0.00646632
0.0260623
0.085917
0.168653
0.247065
0.296968
0.30797
0.285897
0.243329
0.186916
0.114968
0.0289369
-0.0555801
-0.115058
-0.13729
-0.13012
-0.110528
-0.0917296
-0.0812307
-0.0827735
-0.0965515
-0.121484
-0.156313
-0.19289
-0.210639
-0.186971
-0.116797
-0.0180767
0.0821585
0.165132
0.226248
0.267687
0.287265
0.276344
0.229274
0.153468
0.0704297
0.00762302