# vtk DataFile Version 3.0
PFC-RG simulation results
ASCII
DATASET STRUCTURED_POINTS
DIMENSIONS 256 256 1
ORIGIN 0 0 0
SPACING 1 1 1
POINT_DATA 65536
SCALARS psi double
LOOKUP_TABLE default
0.284987
0.285005
0.285023
0.285021
0.284995
0.284968
0.284972
0.285009
0.285042
0.285033
0.284987
0.284952
0.284965
0.285012
0.285044
0.285031
0.284992
0.28497
0.284986
0.285013
0.285014
0.284984
0.284956
0.284971
0.285031
0.285091
0.285095
0.285029
0.284931
0.284863
0.284864
0.284926
0.285011
0.285078
0.285114
0.285129
0.285142
0.285153
0.285139
0.285066
0.284927
0.284758
0.284617
0.284555
0.284586
0.284693
0.284836
0.284968
0.285051
0.285078
0.28509
0.285144
0.285263
0.285415
0.285551
0.285646
0.285722
0.285813
0.285927
0.286045
0.286118
0.286109
0.286006
0.28586
0.285792
0.285878
0.286066
0.28622
0.28625
0.286151
0.285987
0.28584
0.285725
0.285607
0.285437
0.285216
0.285016
0.284921
0.284951
0.285042
0.285098
0.285059
0.28493
0.284756
0.284596
0.284502
0.284519
0.284667
0.284916
0.285177
0.285336
0.285324
0.285158
0.284945
0.28481
0.284818
0.284939
0.285078
0.285152
0.285143
0.2851
0.285076
0.285075
0.285052
0.284959
0.284804
0.284658
0.284601
0.284666
0.284815
0.284991
0.28516
0.285326
0.285487
0.285584
0.285548
0.285369
0.28513
0.284939
0.284863
0.284914
0.285053
0.285246
0.285518
0.285953
0.286526
0.2871
0.287494
0.287552
0.287262
0.286732
0.286141
0.285611
0.28519
0.284851
0.284568
0.284401
0.284388
0.284527
0.28479
0.285097
0.285347
0.285484
0.285542
0.285571
0.28553
0.285319
0.28492
0.284477
0.284234
0.284357
0.284793
0.285283
0.285532
0.285403
0.285005
0.284618
0.284501
0.28473
0.285159
0.285526
0.285617
0.28539
0.284979
0.284611
0.284472
0.284608
0.284902
0.285161
0.28524
0.285121
0.284911
0.284748
0.284713
0.284798
0.284945
0.285106
0.285263
0.285396
0.285459
0.285406
0.285233
0.284987
0.284718
0.284464
0.284277
0.284213
0.284284
0.28446
0.284672
0.284834
0.284901
0.28487
0.284806
0.284789
0.284859
0.284996
0.285142
0.285251
0.2853
0.285308
0.285331
0.285395
0.28547
0.285509
0.285473
0.285345
0.285145
0.284923
0.28474
0.284646
0.28466
0.284777
0.284955
0.285114
0.285167
0.28507
0.28486
0.284643
0.284548
0.284661
0.284974
0.285361
0.285622
0.285592
0.285252
0.284772
0.284423
0.28441
0.284732
0.28518
0.285472
0.285437
0.28513
0.284787
0.284647
0.284776
0.285035
0.285207
0.285183
0.285031
0.284904
0.284891
0.284963
0.285032
0.285048
0.285026
0.285001
0.284987
0.284981
0.284983
0.284999
0.285018
0.285021
0.285001
0.28498
0.284981
0.28501
0.285027
0.285009
0.284975
0.284969
0.285003
0.28504
0.285034
0.284986
0.284948
0.284963
0.285019
0.285057
0.285038
0.284983
0.284951
0.28497
0.285012
0.285027
0.285001
0.284974
0.284988
0.28504
0.285078
0.28505
0.284962
0.284874
0.284856
0.284928
0.285046
0.285141
0.285168
0.285135
0.285077
0.285022
0.284972
0.284909
0.284822
0.284724
0.284654
0.284658
0.284768
0.284972
0.285219
0.285446
0.285611
0.285705
0.285733
0.285693
0.285581
0.285406
0.285214
0.28507
0.285019
0.285068
0.285184
0.285324
0.285457
0.285566
0.285688
0.285871
0.286134
0.286404
0.286525
0.286426
0.286191
0.285978
0.28585
0.285775
0.285694
0.285574
0.285443
0.285329
0.285259
0.285242
0.285269
0.285331
0.285416
0.285513
0.285599
0.285644
0.285619
0.285509
0.285313
0.285049
0.284768
0.284552
0.284487
0.284606
0.284854
0.285109
0.285244
0.285208
0.285055
0.284902
0.284844
0.284894
0.284986
0.285044
0.285044
0.285034
0.285071
0.285164
0.285248
0.285246
0.285137
0.284976
0.284842
0.284761
0.284685
0.284558
0.284391
0.284269
0.284294
0.284488
0.284767
0.285028
0.285246
0.285458
0.285673
0.285829
0.285875
0.285843
0.285744
0.285557
0.285274
0.28492
0.284602
0.284414
0.284366
0.284368
0.284329
0.284229
0.284127
0.284117
0.284208
0.284334
0.284439
0.284521
0.284596
0.28469
0.284824
0.284966
0.285031
0.28493
0.284681
0.284452
0.284465
0.284807
0.285313
0.28566
0.285609
0.28519
0.284689
0.28444
0.2846
0.285053
0.285502
0.285663
0.285437
0.284958
0.284499
0.284304
0.28445
0.284825
0.285207
0.285397
0.285328
0.285088
0.284855
0.284782
0.284915
0.285187
0.285478
0.285694
0.285793
0.28576
0.285585
0.285278
0.284902
0.28455
0.284305
0.284222
0.284336
0.284613
0.284965
0.285317
0.285677
0.286065
0.286458
0.28678
0.286919
0.28683
0.286528
0.286098
0.285617
0.285144
0.284707
0.28433
0.284093
0.284049
0.284196
0.284492
0.284886
0.285306
0.285656
0.28586
0.285885
0.285735
0.28546
0.285152
0.28492
0.284846
0.284936
0.285122
0.285289
0.285321
0.285154
0.284826
0.284484
0.284326
0.284482
0.284919
0.285427
0.28573
0.285647
0.285212
0.284679
0.284368
0.284464
0.284879
0.285313
0.285473
0.28529
0.284949
0.28472
0.284741
0.284938
0.285123
0.285166
0.285078
0.284962
0.284911
0.284941
0.285004
0.285042
0.285034
0.285003
0.284983
0.284985
0.284998
0.285004
0.285001
0.285
0.285004
0.284997
0.285004
0.284999
0.284983
0.284984
0.285012
0.285037
0.285022
0.284975
0.284947
0.284974
0.285035
0.285064
0.285029
0.284965
0.284937
0.28497
0.285025
0.285045
0.285016
0.284982
0.284986
0.285025
0.285047
0.285009
0.284929
0.284877
0.284914
0.285029
0.28515
0.285195
0.285137
0.285017
0.284904
0.284843
0.28483
0.284832
0.284832
0.284848
0.284916
0.285056
0.285246
0.285431
0.285544
0.285543
0.285423
0.285227
0.285028
0.284884
0.284813
0.284774
0.284717
0.28462
0.284498
0.284379
0.284274
0.284169
0.284042
0.283887
0.283715
0.283577
0.283529
0.283598
0.283728
0.28378
0.283681
0.283497
0.283382
0.283415
0.283576
0.28379
0.283985
0.284161
0.284345
0.284554
0.284765
0.284916
0.28496
0.284911
0.284838
0.284824
0.284915
0.285105
0.285343
0.285553
0.285647
0.285569
0.285323
0.284996
0.284722
0.284618
0.284712
0.28492
0.285104
0.28516
0.285084
0.284962
0.284894
0.284915
0.284973
0.28499
0.284941
0.284882
0.2849
0.285028
0.285207
0.28533
0.285333
0.285238
0.285117
0.285005
0.284884
0.284724
0.284552
0.284458
0.284517
0.284713
0.284937
0.285094
0.285151
0.285124
0.285035
0.284883
0.284629
0.28421
0.283673
0.283154
0.282813
0.282772
0.283041
0.283541
0.284117
0.284642
0.285041
0.28533
0.285555
0.28568
0.285671
0.285509
0.285214
0.284876
0.284625
0.284535
0.284555
0.284577
0.284575
0.284648
0.284905
0.285319
0.28568
0.285728
0.285369
0.284795
0.284376
0.284399
0.284846
0.285406
0.285694
0.285521
0.284999
0.284448
0.284187
0.284346
0.284819
0.285338
0.285639
0.285603
0.285305
0.284949
0.284737
0.284761
0.284966
0.285207
0.28534
0.285309
0.285143
0.284917
0.284695
0.284521
0.284438
0.284473
0.284633
0.284895
0.285217
0.285534
0.285762
0.285835
0.285761
0.28559
0.285387
0.285219
0.285133
0.285148
0.285218
0.285254
0.285199
0.285058
0.284893
0.28477
0.284713
0.284682
0.28461
0.284491
0.284385
0.284349
0.284412
0.284582
0.284836
0.285117
0.28534
0.285431
0.285369
0.285187
0.284964
0.284806
0.284807
0.284997
0.285303
0.285561
0.285596
0.285326
0.284837
0.284356
0.284151
0.284368
0.284926
0.285522
0.285806
0.285606
0.285065
0.284546
0.284381
0.284633
0.285078
0.285384
0.285368
0.285102
0.284827
0.284745
0.284872
0.28506
0.285143
0.285087
0.284982
0.284936
0.284963
0.285004
0.285013
0.285002
0.285005
0.285018
0.285012
0.284983
0.284967
0.284992
0.28503
0.285019
0.284999
0.284973
0.284974
0.28501
0.285043
0.285029
0.284973
0.284938
0.284973
0.285046
0.285077
0.285025
0.284943
0.284918
0.284975
0.285052
0.285071
0.285022
0.284965
0.284963
0.285005
0.28503
0.284996
0.284933
0.284916
0.284987
0.285106
0.285181
0.285144
0.285007
0.284854
0.284771
0.284791
0.28488
0.284979
0.285055
0.285116
0.285193
0.285296
0.28539
0.285411
0.285308
0.28508
0.284779
0.28448
0.284244
0.284108
0.284085
0.284166
0.284335
0.284561
0.284788
0.284955
0.285012
0.284942
0.284789
0.284619
0.284482
0.284383
0.284265
0.284075
0.283804
0.283539
0.283425
0.283517
0.283729
0.283919
0.284037
0.284111
0.284189
0.284302
0.284441
0.284594
0.284725
0.284791
0.28477
0.284671
0.284527
0.284373
0.284245
0.284177
0.284207
0.284364
0.28465
0.285019
0.285372
0.285585
0.285576
0.285362
0.28506
0.28483
0.284773
0.284877
0.285031
0.285112
0.285075
0.284981
0.284929
0.284966
0.285042
0.285058
0.284965
0.284818
0.284732
0.284779
0.284924
0.285063
0.285128
0.285153
0.285229
0.285397
0.285593
0.285695
0.285633
0.285439
0.285209
0.284995
0.284766
0.28449
0.284231
0.284107
0.284143
0.284223
0.2843
0.284449
0.28475
0.285167
0.285518
0.285664
0.285632
0.285579
0.285612
0.285698
0.285752
0.285714
0.285624
0.285544
0.285475
0.285396
0.285324
0.285284
0.285235
0.285124
0.284983
0.284945
0.285111
0.285398
0.285554
0.285365
0.284871
0.284379
0.284247
0.284603
0.285226
0.285692
0.285673
0.285169
0.28451
0.284124
0.28425
0.284803
0.285455
0.285854
0.285822
0.285428
0.284917
0.284558
0.284503
0.284718
0.285024
0.285215
0.285172
0.28491
0.28455
0.284235
0.284063
0.284078
0.284277
0.28462
0.285035
0.285433
0.285731
0.285856
0.285751
0.285442
0.285036
0.284635
0.284236
0.28381
0.283375
0.283021
0.282871
0.282975
0.283309
0.28378
0.284309
0.284843
0.285346
0.285769
0.286018
0.286043
0.285859
0.285514
0.28506
0.284574
0.284178
0.283971
0.283992
0.284213
0.284557
0.284905
0.285134
0.285155
0.284979
0.28472
0.284549
0.28461
0.284936
0.285412
0.285801
0.285861
0.28549
0.284832
0.284229
0.284034
0.284377
0.285053
0.285643
0.28579
0.285436
0.284858
0.284463
0.284494
0.284864
0.285248
0.285363
0.285183
0.28492
0.284801
0.284872
0.28501
0.285081
0.285062
0.285016
0.284989
0.284978
0.284972
0.28498
0.285009
0.285036
0.285025
0.284986
0.284964
0.284986
0.285023
0.285021
0.285
0.28498
0.284994
0.285023
0.285024
0.284984
0.284953
0.284977
0.285041
0.285069
0.285019
0.284937
0.284914
0.284981
0.285071
0.28509
0.285021
0.28494
0.28493
0.284988
0.285036
0.285019
0.284964
0.284954
0.285025
0.285121
0.285142
0.28504
0.284873
0.284758
0.284775
0.284915
0.285088
0.285207
0.28524
0.28522
0.285187
0.285155
0.285094
0.284965
0.284761
0.284529
0.284353
0.284311
0.28443
0.28467
0.284945
0.285175
0.285323
0.285406
0.285467
0.285538
0.285624
0.285722
0.28583
0.28596
0.286126
0.286331
0.286569
0.286777
0.286885
0.286858
0.286755
0.286719
0.286822
0.286985
0.287051
0.286955
0.286729
0.286446
0.286174
0.285919
0.285677
0.285453
0.285276
0.285183
0.285187
0.285253
0.28531
0.285275
0.285104
0.284816
0.284489
0.284243
0.284189
0.284372
0.284733
0.28512
0.285368
0.285386
0.285215
0.284999
0.284884
0.284921
0.285038
0.285111
0.285072
0.284967
0.28491
0.284972
0.285107
0.285187
0.28512
0.284936
0.284762
0.284704
0.284763
0.284853
0.284908
0.284958
0.285077
0.285273
0.285453
0.285499
0.285385
0.285198
0.285042
0.284939
0.284862
0.284823
0.284873
0.285038
0.285309
0.285691
0.286148
0.286609
0.286949
0.287012
0.286737
0.286213
0.285638
0.285161
0.28482
0.284561
0.284344
0.284243
0.284297
0.28449
0.284782
0.285115
0.285387
0.285495
0.28543
0.285311
0.28527
0.285293
0.285224
0.284928
0.284492
0.284229
0.284414
0.285008
0.285627
0.285822
0.28543
0.284708
0.284149
0.284136
0.284688
0.285463
0.285997
0.285995
0.285491
0.284791
0.284269
0.28415
0.284419
0.284868
0.285235
0.285344
0.285185
0.284893
0.284654
0.284594
0.284736
0.285011
0.285319
0.28557
0.285703
0.28569
0.285534
0.285255
0.284887
0.284505
0.284217
0.284112
0.28418
0.284355
0.284559
0.284724
0.284811
0.284803
0.284742
0.284702
0.284743
0.284883
0.285065
0.285215
0.285301
0.285368
0.285491
0.285665
0.285807
0.285837
0.285726
0.285485
0.285155
0.284813
0.284562
0.284491
0.284621
0.284887
0.285159
0.28529
0.285183
0.284852
0.284441
0.284183
0.284285
0.284783
0.285479
0.286008
0.286049
0.285536
0.284734
0.284105
0.284027
0.28453
0.285264
0.285735
0.285657
0.285158
0.284653
0.284501
0.284734
0.285091
0.285278
0.28521
0.285016
0.284878
0.284875
0.28496
0.28504
0.285062
0.285033
0.284994
0.284975
0.284981
0.284995
0.285003
0.285006
0.285009
0.28501
0.285001
0.284986
0.285001
0.284999
0.285007
0.285021
0.285012
0.284975
0.284954
0.284989
0.285052
0.285067
0.285002
0.284921
0.284917
0.285005
0.285096
0.285093
0.284998
0.284908
0.284912
0.284994
0.285063
0.285052
0.284991
0.284967
0.285018
0.285085
0.285073
0.284955
0.284815
0.284779
0.2849
0.28511
0.285278
0.285308
0.285204
0.285046
0.284917
0.284836
0.284769
0.284679
0.284579
0.284531
0.284608
0.284841
0.285195
0.285585
0.285915
0.286109
0.286137
0.286014
0.285776
0.285476
0.285183
0.284979
0.284924
0.285022
0.285211
0.285406
0.285558
0.285661
0.285772
0.285949
0.286201
0.286458
0.286577
0.2865
0.286306
0.286134
0.286036
0.285988
0.285939
0.285834
0.285665
0.285451
0.285252
0.285146
0.285171
0.285317
0.285533
0.285763
0.285956
0.286056
0.286001
0.285753
0.285334
0.284845
0.284447
0.284283
0.284402
0.284712
0.285033
0.285198
0.285159
0.28501
0.284906
0.284937
0.285059
0.285144
0.285097
0.284952
0.284843
0.284888
0.285066
0.285238
0.285269
0.28515
0.285
0.284933
0.284946
0.284932
0.284805
0.284593
0.284422
0.284379
0.284458
0.284593
0.28475
0.284959
0.285254
0.28559
0.285835
0.285888
0.2858
0.285729
0.28569
0.285544
0.2852
0.28474
0.284386
0.284278
0.284356
0.284441
0.284436
0.28438
0.284353
0.284403
0.284489
0.284553
0.284604
0.284671
0.28473
0.284745
0.284745
0.284807
0.284953
0.285082
0.285047
0.284811
0.284537
0.284503
0.284861
0.285446
0.285839
0.285684
0.285016
0.284281
0.284021
0.284453
0.285304
0.286015
0.28613
0.285587
0.284721
0.284022
0.28384
0.284204
0.284857
0.285433
0.285669
0.285526
0.285168
0.284849
0.284766
0.284973
0.285372
0.285792
0.28607
0.286113
0.285909
0.285518
0.285038
0.284576
0.284222
0.284058
0.284148
0.284475
0.284928
0.28539
0.285848
0.286325
0.286809
0.287209
0.287386
0.28727
0.286886
0.286351
0.285754
0.28515
0.284579
0.284107
0.283841
0.283834
0.284069
0.284486
0.285022
0.285578
0.286016
0.286215
0.286131
0.285815
0.285387
0.285006
0.284818
0.284894
0.285182
0.285505
0.285633
0.285409
0.284857
0.284219
0.283844
0.284001
0.284686
0.285574
0.286172
0.286111
0.285416
0.284528
0.284015
0.284179
0.284836
0.285482
0.285682
0.285379
0.284887
0.284596
0.284669
0.284961
0.285194
0.285205
0.285055
0.28492
0.284907
0.284973
0.28502
0.285015
0.285004
0.285019
0.285029
0.284998
0.284953
0.284959
0.285019
0.285061
0.285028
0.284958
0.28498
0.284988
0.285019
0.285029
0.284995
0.284955
0.284973
0.285039
0.285071
0.285012
0.284919
0.284909
0.28501
0.285116
0.285103
0.284976
0.284869
0.284895
0.285021
0.285111
0.285084
0.284988
0.284939
0.284981
0.285046
0.285032
0.284929
0.284838
0.284875
0.28505
0.285249
0.28532
0.285202
0.284968
0.284755
0.284661
0.284689
0.284769
0.284844
0.284914
0.285029
0.285231
0.285498
0.285738
0.285841
0.285746
0.285474
0.285112
0.284766
0.284512
0.284367
0.284299
0.284259
0.284216
0.284155
0.284063
0.28392
0.283708
0.283426
0.283097
0.2828
0.282616
0.282577
0.282628
0.282631
0.282527
0.282397
0.282389
0.282558
0.282868
0.283251
0.283633
0.283985
0.284283
0.284509
0.284643
0.284672
0.284613
0.284522
0.284488
0.284601
0.284895
0.285318
0.285739
0.28599
0.285952
0.285627
0.285153
0.284744
0.284572
0.284664
0.28489
0.285062
0.285066
0.284941
0.284837
0.284876
0.285041
0.285183
0.285164
0.284983
0.284793
0.284764
0.284924
0.285139
0.285248
0.285211
0.285126
0.285103
0.285128
0.285087
0.28491
0.284676
0.284546
0.284597
0.284753
0.284874
0.284926
0.285005
0.285158
0.285282
0.285231
0.284999
0.284703
0.284397
0.284051
0.28363
0.283241
0.283139
0.283454
0.284042
0.284603
0.284987
0.285246
0.285503
0.285752
0.285838
0.285721
0.28549
0.28522
0.284917
0.284623
0.284466
0.284534
0.28474
0.284875
0.284833
0.284741
0.284854
0.28525
0.285684
0.285762
0.285299
0.284543
0.28403
0.284186
0.284966
0.285852
0.286219
0.285784
0.284811
0.283906
0.283605
0.284041
0.284918
0.285742
0.286119
0.285946
0.285416
0.284865
0.284573
0.284636
0.284947
0.285291
0.285471
0.285397
0.285103
0.284707
0.284347
0.284129
0.284101
0.284255
0.28456
0.284974
0.285425
0.285792
0.28596
0.285921
0.285744
0.285523
0.285345
0.28525
0.28525
0.285309
0.285359
0.285333
0.2852
0.285006
0.284818
0.284672
0.284538
0.284351
0.284123
0.283952
0.283934
0.284107
0.284446
0.284877
0.285286
0.285546
0.285565
0.28534
0.284981
0.284676
0.284618
0.284894
0.285415
0.285923
0.286099
0.285743
0.284932
0.284042
0.283575
0.28385
0.284755
0.285766
0.286266
0.285968
0.285115
0.284309
0.284075
0.284491
0.285167
0.285577
0.285478
0.285059
0.284719
0.2847
0.284912
0.285104
0.285132
0.285054
0.284991
0.284977
0.284969
0.284957
0.284976
0.285032
0.285064
0.285023
0.284954
0.284942
0.285001
0.285052
0.28503
0.284973
0.284977
0.28498
0.285007
0.285011
0.284989
0.284985
0.285019
0.285043
0.285006
0.284938
0.284929
0.285015
0.285108
0.285092
0.284962
0.284855
0.284894
0.285046
0.285153
0.285106
0.284966
0.284885
0.284933
0.285029
0.285046
0.284966
0.2849
0.284961
0.285132
0.285265
0.285218
0.284987
0.284718
0.284585
0.284659
0.284873
0.285094
0.285237
0.285307
0.285367
0.285448
0.285514
0.285474
0.285255
0.284857
0.284367
0.283919
0.283634
0.283575
0.283734
0.284057
0.284465
0.284856
0.285115
0.285176
0.285049
0.284821
0.284589
0.284404
0.284282
0.284169
0.284008
0.28377
0.283508
0.283367
0.283421
0.283597
0.283748
0.283816
0.283833
0.283864
0.283986
0.284215
0.284516
0.284792
0.284938
0.2849
0.28469
0.284372
0.284031
0.28375
0.283628
0.283752
0.28415
0.284742
0.285347
0.285748
0.285809
0.285555
0.285171
0.284887
0.284837
0.28497
0.285108
0.285094
0.284928
0.284766
0.284774
0.284971
0.285196
0.285251
0.285084
0.284838
0.284717
0.284795
0.28496
0.285044
0.285003
0.284956
0.285037
0.28524
0.285435
0.28551
0.285493
0.285472
0.285447
0.285325
0.285035
0.284644
0.284319
0.284174
0.284184
0.28423
0.284232
0.284288
0.28452
0.284911
0.28533
0.285623
0.285733
0.285695
0.285595
0.285515
0.285506
0.285554
0.285557
0.28547
0.285351
0.285277
0.285262
0.285266
0.285253
0.285227
0.285193
0.28512
0.28499
0.284888
0.284968
0.285256
0.285516
0.28541
0.284861
0.284223
0.284047
0.284585
0.285522
0.286177
0.286026
0.285113
0.284026
0.283483
0.283841
0.284874
0.285963
0.286509
0.286287
0.28552
0.284675
0.284168
0.284166
0.284542
0.285002
0.285252
0.285148
0.284742
0.284224
0.283813
0.283667
0.283841
0.284275
0.284838
0.285392
0.285825
0.286047
0.28598
0.285636
0.285131
0.284592
0.284054
0.283504
0.282958
0.282506
0.282305
0.282436
0.282873
0.283491
0.284184
0.284881
0.285529
0.286059
0.286348
0.286326
0.286013
0.285489
0.284844
0.284207
0.283739
0.283574
0.283749
0.284184
0.284704
0.2851
0.285202
0.284973
0.284546
0.284191
0.284192
0.284681
0.285513
0.286282
0.286518
0.285988
0.284899
0.283838
0.283434
0.283937
0.285023
0.285983
0.286208
0.285623
0.284729
0.284197
0.284338
0.284906
0.285381
0.285439
0.285164
0.284873
0.284782
0.284876
0.28501
0.285078
0.285073
0.285031
0.284987
0.284961
0.284965
0.284991
0.285017
0.285026
0.285017
0.284999
0.284982
0.284976
0.28499
0.285018
0.284992
0.284999
0.284998
0.284983
0.284989
0.285027
0.285045
0.285
0.284931
0.284934
0.28503
0.285116
0.285077
0.284935
0.284842
0.284914
0.285087
0.285181
0.285096
0.28492
0.284833
0.284909
0.285049
0.285099
0.285026
0.284947
0.284985
0.285116
0.285185
0.285069
0.284815
0.284617
0.284645
0.284903
0.285231
0.285442
0.285455
0.285329
0.285178
0.285062
0.284948
0.284765
0.284489
0.284193
0.284008
0.284044
0.284326
0.284776
0.285261
0.285652
0.28589
0.285989
0.286002
0.28599
0.285995
0.286051
0.286193
0.286451
0.286821
0.287255
0.287649
0.287917
0.288027
0.288034
0.288061
0.288156
0.288242
0.288184
0.287933
0.287519
0.287018
0.286518
0.286072
0.285732
0.285525
0.285456
0.285511
0.285641
0.285757
0.285741
0.2855
0.285028
0.284442
0.283947
0.283748
0.283941
0.284439
0.285005
0.285376
0.285421
0.285219
0.284992
0.284937
0.285075
0.285241
0.28524
0.285028
0.284767
0.284683
0.284859
0.285149
0.285305
0.285206
0.284964
0.284798
0.284817
0.28492
0.28494
0.284851
0.2848
0.284927
0.285186
0.28538
0.285378
0.285243
0.285146
0.285152
0.285148
0.284995
0.28474
0.284604
0.284728
0.285009
0.285262
0.285474
0.285763
0.286192
0.286603
0.286695
0.286351
0.285754
0.285216
0.284871
0.284642
0.284407
0.284179
0.284108
0.284231
0.284474
0.284767
0.285085
0.285376
0.28553
0.285475
0.285265
0.28507
0.285041
0.285165
0.285236
0.285031
0.284571
0.284205
0.284352
0.285077
0.285914
0.286179
0.28555
0.284396
0.283537
0.28362
0.284637
0.285947
0.28674
0.286569
0.28559
0.284397
0.283623
0.283579
0.284143
0.284908
0.285455
0.285564
0.28528
0.284837
0.284505
0.284464
0.284736
0.285206
0.285695
0.286038
0.286147
0.286016
0.285688
0.285218
0.284688
0.284232
0.283981
0.283963
0.284119
0.284345
0.284542
0.284657
0.284665
0.284598
0.284536
0.284556
0.284692
0.284908
0.285147
0.28537
0.285591
0.285858
0.286144
0.286334
0.286318
0.286055
0.28559
0.285039
0.284563
0.284324
0.284409
0.284771
0.285228
0.285519
0.285424
0.284897
0.284151
0.283595
0.283632
0.284392
0.28558
0.286576
0.286776
0.286
0.284676
0.283616
0.28348
0.284297
0.285435
0.28609
0.285891
0.285135
0.284471
0.284351
0.284721
0.285177
0.285357
0.285213
0.284966
0.284846
0.284896
0.284994
0.285032
0.285018
0.285019
0.285041
0.285025
0.284959
0.28492
0.284975
0.285071
0.285085
0.284992
0.284908
0.284942
0.285049
0.285013
0.28504
0.285007
0.284965
0.284982
0.285034
0.285033
0.284965
0.28493
0.285002
0.285103
0.285086
0.284941
0.284834
0.284914
0.285114
0.28521
0.285083
0.284863
0.28478
0.284914
0.285112
0.285173
0.285064
0.284937
0.284939
0.285047
0.285097
0.284978
0.284771
0.284685
0.284854
0.285198
0.285486
0.285519
0.285288
0.28495
0.284686
0.284568
0.284539
0.28451
0.284458
0.284465
0.284648
0.28506
0.285636
0.28622
0.286633
0.286762
0.286586
0.286166
0.285621
0.285103
0.284763
0.284679
0.284834
0.285119
0.285409
0.28563
0.285761
0.285858
0.285994
0.286209
0.286459
0.2866
0.28656
0.28641
0.2863
0.286282
0.286309
0.28629
0.286135
0.285833
0.285439
0.285083
0.284906
0.284979
0.28529
0.285754
0.286246
0.286621
0.28673
0.28647
0.285861
0.285075
0.284391
0.28406
0.284164
0.28456
0.284962
0.28513
0.285031
0.284849
0.284819
0.285019
0.285294
0.285391
0.285195
0.28485
0.284643
0.284744
0.285044
0.285268
0.285246
0.285064
0.28495
0.28501
0.285122
0.285091
0.284885
0.284671
0.284606
0.284651
0.284634
0.284505
0.284441
0.284643
0.285082
0.285511
0.285724
0.285748
0.285758
0.285834
0.285884
0.285732
0.285372
0.284977
0.284668
0.284447
0.284286
0.28424
0.284358
0.284552
0.284638
0.284556
0.284478
0.28456
0.284743
0.284849
0.284814
0.28474
0.284742
0.284804
0.284835
0.284841
0.284923
0.285088
0.285164
0.284976
0.284616
0.284447
0.284776
0.285487
0.286033
0.285863
0.284938
0.283871
0.283498
0.284213
0.285604
0.286732
0.286817
0.285789
0.284293
0.283208
0.283083
0.283861
0.285015
0.285916
0.286191
0.285865
0.285266
0.284802
0.284737
0.285094
0.285691
0.286254
0.286546
0.286448
0.285998
0.285347
0.284677
0.284132
0.283827
0.283861
0.284227
0.2848
0.285431
0.286068
0.286708
0.287327
0.287823
0.28804
0.287898
0.287412
0.286706
0.285899
0.285087
0.284339
0.283736
0.283427
0.283491
0.283905
0.284564
0.285339
0.286061
0.286539
0.286631
0.286324
0.28575
0.28515
0.284789
0.28484
0.285281
0.285855
0.28617
0.285902
0.285016
0.28387
0.283082
0.283191
0.284269
0.285778
0.286833
0.28678
0.285676
0.28428
0.283524
0.28383
0.284842
0.285747
0.28593
0.285413
0.284742
0.284461
0.284674
0.28505
0.285232
0.285156
0.285014
0.284962
0.28497
0.284953
0.284933
0.284984
0.285082
0.285101
0.284997
0.284894
0.284924
0.285046
0.285097
0.285018
0.284928
0.284949
0.285037
0.285027
0.285056
0.285012
0.284968
0.284982
0.285012
0.285001
0.284974
0.284998
0.28506
0.285059
0.284955
0.284865
0.28493
0.285112
0.285202
0.285067
0.284831
0.284753
0.284932
0.28518
0.285241
0.28507
0.284871
0.284847
0.28498
0.285073
0.284996
0.284841
0.284824
0.285043
0.285356
0.285492
0.285301
0.28488
0.284494
0.284356
0.284486
0.284739
0.284963
0.285118
0.285279
0.285528
0.285851
0.286122
0.286174
0.285916
0.285387
0.284743
0.284169
0.283787
0.283623
0.283626
0.283712
0.283796
0.283805
0.283675
0.283367
0.2829
0.282336
0.281799
0.281392
0.281161
0.281065
0.280993
0.280899
0.280859
0.281004
0.281383
0.28196
0.282637
0.283296
0.283849
0.284225
0.284394
0.284368
0.284197
0.283979
0.283853
0.28397
0.28441
0.285118
0.285879
0.286405
0.286474
0.286065
0.285395
0.284804
0.28456
0.284684
0.284954
0.28508
0.284941
0.284683
0.284585
0.284801
0.285195
0.285448
0.285345
0.284982
0.284682
0.284685
0.284936
0.28516
0.285164
0.285027
0.28498
0.285116
0.285271
0.285215
0.284938
0.28468
0.284657
0.284812
0.284903
0.284814
0.284706
0.284806
0.285119
0.285391
0.285396
0.285183
0.284974
0.284857
0.284677
0.284316
0.283862
0.283546
0.283542
0.283836
0.284318
0.284842
0.285288
0.285568
0.2857
0.28579
0.285859
0.285843
0.28564
0.285253
0.284842
0.284581
0.284515
0.284574
0.284703
0.284882
0.285026
0.284999
0.284825
0.284768
0.285077
0.285617
0.285867
0.285406
0.284417
0.283655
0.283844
0.285009
0.286374
0.286918
0.286162
0.28454
0.283088
0.282712
0.283597
0.285155
0.286484
0.286947
0.286479
0.285506
0.284616
0.284224
0.284403
0.284923
0.28543
0.285637
0.285439
0.284919
0.28429
0.283779
0.283537
0.283608
0.283956
0.284506
0.285144
0.285709
0.286055
0.286142
0.286024
0.285803
0.28559
0.285457
0.285446
0.285523
0.285598
0.285584
0.285438
0.285184
0.284876
0.284561
0.284228
0.28385
0.283488
0.283287
0.283371
0.283766
0.284393
0.285078
0.285604
0.285778
0.285536
0.285001
0.284462
0.284268
0.284638
0.285507
0.286468
0.286937
0.286482
0.285159
0.283598
0.2827
0.283056
0.284498
0.286135
0.286932
0.286435
0.285097
0.283927
0.283711
0.284427
0.28536
0.28577
0.285495
0.28496
0.284661
0.284727
0.284943
0.28508
0.285101
0.285078
0.285041
0.284978
0.28492
0.284928
0.285004
0.285068
0.285057
0.284997
0.284958
0.284966
0.284994
0.285016
0.285028
0.285024
0.284993
0.285028
0.285007
0.284983
0.284996
0.285014
0.284994
0.284969
0.284998
0.285059
0.285053
0.284952
0.284874
0.284949
0.285123
0.28519
0.285035
0.284802
0.284755
0.284975
0.285242
0.285273
0.285036
0.284781
0.284762
0.284959
0.285128
0.285093
0.284944
0.284915
0.285099
0.285323
0.285314
0.284987
0.284543
0.284309
0.28446
0.284894
0.285342
0.285595
0.285634
0.285589
0.285572
0.285562
0.285425
0.285036
0.284399
0.283668
0.283076
0.28282
0.282979
0.283497
0.284214
0.284907
0.285379
0.28552
0.285348
0.284992
0.284617
0.284331
0.284166
0.284059
0.283924
0.283705
0.283446
0.283289
0.283303
0.283412
0.283472
0.283442
0.28339
0.283433
0.283668
0.284093
0.284619
0.285075
0.285281
0.285139
0.284668
0.283995
0.283315
0.28286
0.282833
0.283322
0.28421
0.285189
0.285885
0.286056
0.285745
0.285252
0.28494
0.284973
0.285207
0.285323
0.285122
0.284715
0.284442
0.284561
0.284998
0.28539
0.285421
0.28511
0.284779
0.284721
0.284916
0.285083
0.285016
0.284824
0.284787
0.285008
0.285281
0.285342
0.285206
0.285153
0.285366
0.285657
0.28566
0.285258
0.284729
0.284413
0.284354
0.284329
0.284191
0.284042
0.284062
0.284324
0.284703
0.285037
0.285304
0.285545
0.285733
0.285764
0.285614
0.285402
0.285291
0.285324
0.285376
0.285338
0.285227
0.28513
0.285106
0.285153
0.285216
0.285236
0.285205
0.285146
0.28507
0.284963
0.284859
0.284886
0.285136
0.285463
0.285492
0.284973
0.284174
0.283809
0.284404
0.285701
0.286719
0.286544
0.285127
0.283395
0.282563
0.283239
0.285014
0.28679
0.287553
0.286987
0.285567
0.284151
0.283426
0.28357
0.284273
0.285005
0.28533
0.285099
0.284457
0.283725
0.283238
0.283202
0.283629
0.284363
0.285184
0.285889
0.286316
0.286342
0.28597
0.285329
0.284586
0.283813
0.283036
0.282308
0.281744
0.281503
0.281668
0.282227
0.283056
0.284014
0.28498
0.285854
0.286524
0.286828
0.286686
0.286133
0.285303
0.284375
0.283568
0.283112
0.283147
0.283641
0.284378
0.285029
0.285277
0.284976
0.284268
0.283581
0.28344
0.284159
0.285565
0.286981
0.287553
0.286805
0.285034
0.283245
0.28254
0.283347
0.285072
0.286501
0.286708
0.285737
0.284486
0.283906
0.28425
0.285014
0.285511
0.285466
0.285112
0.28483
0.284793
0.284909
0.285011
0.28504
0.285045
0.285061
0.28505
0.284976
0.284897
0.284915
0.285038
0.285131
0.285072
0.284921
0.284867
0.28498
0.285116
0.285098
0.284953
0.285009
0.284919
0.284944
0.285042
0.285067
0.284991
0.284944
0.285002
0.285063
0.285007
0.284903
0.284927
0.285092
0.285184
0.285039
0.284794
0.284753
0.285007
0.285294
0.285287
0.284974
0.284682
0.284708
0.285002
0.285242
0.285206
0.284996
0.284894
0.285018
0.285185
0.285126
0.284797
0.284467
0.284466
0.284877
0.285451
0.285821
0.285792
0.285455
0.28506
0.284782
0.284611
0.284416
0.284114
0.283781
0.283614
0.283793
0.284353
0.285152
0.285951
0.286542
0.28683
0.28684
0.286674
0.286472
0.286369
0.286468
0.286811
0.287368
0.288063
0.288756
0.289319
0.289678
0.289851
0.28995
0.290028
0.29001
0.289757
0.289222
0.288455
0.287581
0.286762
0.28612
0.285745
0.285664
0.285841
0.286171
0.286484
0.286575
0.286274
0.285545
0.284555
0.283647
0.283186
0.283356
0.284035
0.284837
0.285344
0.285371
0.285086
0.284867
0.284977
0.285341
0.285605
0.285463
0.284961
0.284486
0.284427
0.284808
0.285266
0.2854
0.28516
0.284864
0.284829
0.285025
0.285136
0.284964
0.284686
0.28465
0.284948
0.285292
0.285347
0.285128
0.284973
0.285113
0.285377
0.285402
0.285085
0.284704
0.284591
0.284757
0.284934
0.284957
0.284979
0.285253
0.285731
0.286132
0.286277
0.286213
0.286033
0.285691
0.285149
0.28457
0.284243
0.284226
0.284277
0.284218
0.284135
0.284272
0.2847
0.285193
0.285476
0.285497
0.285398
0.285285
0.285143
0.284976
0.284914
0.285052
0.285245
0.285179
0.284723
0.2842
0.284199
0.284988
0.286105
0.286593
0.285822
0.284154
0.2828
0.282878
0.284494
0.286619
0.287853
0.287429
0.28567
0.283671
0.282516
0.282657
0.283767
0.285085
0.285918
0.285981
0.285445
0.284742
0.284299
0.284347
0.284866
0.285632
0.28635
0.286783
0.286828
0.286494
0.28587
0.285107
0.284406
0.28394
0.283756
0.28381
0.284003
0.284211
0.284345
0.284355
0.284278
0.284205
0.284231
0.284413
0.284733
0.285137
0.285574
0.286044
0.286544
0.286973
0.287151
0.286945
0.286359
0.285532
0.284712
0.284183
0.28415
0.284623
0.285358
0.285919
0.285879
0.285069
0.28377
0.282669
0.282526
0.28367
0.285666
0.287431
0.287869
0.286645
0.284523
0.282894
0.282785
0.2841
0.285745
0.286529
0.286077
0.284996
0.284233
0.284264
0.284818
0.285288
0.285341
0.285122
0.284953
0.28494
0.284956
0.284914
0.284909
0.285033
0.285168
0.285121
0.284917
0.284808
0.28494
0.28514
0.285143
0.284962
0.284855
0.284958
0.285103
0.285081
0.284944
0.284971
0.284881
0.284957
0.285078
0.285075
0.284978
0.284941
0.284998
0.28503
0.284978
0.284952
0.285039
0.285127
0.285042
0.284835
0.284781
0.285014
0.285299
0.28528
0.284927
0.284611
0.284687
0.28508
0.285376
0.285289
0.284962
0.284767
0.284872