# vtk DataFile Version 3.0
PFC simulation results
ASCII
DATASET STRUCTURED_POINTS
DIMENSIONS 128 128 1
ORIGIN 0 0 0
SPACING 1 1 1
POINT_DATA 16384
SCALARS psi double
LOOKUP_TABLE default
-7.3265e+15
1.3947e+16
8.79795e+15
1.90321e+15
-1.86694e+16
-3.11022e+15
5.82629e+15
1.63976e+16
-2.08022e+15
-1.30692e+16
-8.51918e+15
6.36543e+15
1.61236e+16
-3.79011e+14
-1.07416e+16
-1.25679e+16
7.33515e+15
1.36957e+16
3.69387e+15
-1.06085e+16
-1.38624e+16
6.26401e+15
1.18664e+16
8.41066e+15
-1.24387e+16
-1.17296e+16
1.43244e+15
1.32529e+16
9.80336e+15
-1.17562e+16
-1.02902e+16
-4.37721e+15
1.7638e+16
5.51971e+15
-3.58726e+15
-1.69902e+16
-8.77792e+14
1.19698e+16
1.08793e+16
-4.45595e+15
-1.54812e+16
-3.56368e+15
1.06044e+16
1.24079e+16
-2.34211e+15
-1.62218e+16
-3.79237e+15
6.26885e+15
1.76505e+16
-5.80833e+15
-8.86444e+15
-1.33738e+16
1.27325e+16
1.05394e+16
3.51324e+15
-1.45981e+16
-9.5798e+15
6.66554e+15
1.36916e+16
4.19135e+15
-1.31233e+16
-1.10419e+16
4.83226e+15
1.32337e+16
7.43815e+15
-1.38774e+16
-8.97672e+15
-1.79791e+15
1.87434e+16
2.93658e+15
-5.73358e+15
-1.63161e+16
1.90972e+15
1.31509e+16
8.61331e+15
-6.53772e+15
-1.60623e+16
4.92577e+14
1.05805e+16
1.26027e+16
-7.21098e+15
-1.38407e+16
-3.6866e+15
1.07424e+16
1.37368e+16
-6.27902e+15
-1.17314e+16
-8.51613e+15
1.24081e+16
1.18624e+16
-1.52857e+15
-1.32951e+16
-9.66103e+15
1.16643e+16
1.0227e+16
4.53225e+15
-1.77185e+16
-5.60475e+15
3.75569e+15
1.69222e+16
7.62409e+14
-1.17939e+16
-1.09185e+16
4.31888e+15
1.56465e+16
3.54375e+15
-1.07497e+16
-1.22465e+16
2.33275e+15
1.60679e+16
3.948e+15
-6.27093e+15
-1.78051e+16
5.96945e+15
8.86282e+15
1.32015e+16
-1.25643e+16
-1.05222e+16
-3.7001e+15
1.47581e+16
9.61322e+15
-6.86068e+15
-1.35419e+16
-4.13778e+15
1.2927e+16
1.11694e+16
-4.76674e+15
-1.34192e+16
-1.43047e+16
3.31289e+14
6.07508e+15
1.31636e+16
-6.83536e+15
-8.40708e+15
-7.43999e+15
1.09364e+16
8.60555e+15
-4.1552e+14
-1.22873e+16
-5.49136e+15
6.67243e+15
1.18832e+16
-9.93815e+14
-9.45429e+15
-9.58166e+15
8.71154e+15
8.10519e+15
5.75412e+15
-1.44733e+16
-4.5104e+15
3.12855e+14
1.5421e+16
1.94433e+14
-6.69386e+15
-1.17561e+16
4.04836e+15
1.08281e+16
5.60187e+15
-8.48672e+15
-1.03633e+16
6.89894e+14
1.20149e+16
5.41348e+15
-5.09579e+15
-1.36081e+16
2.06908e+15
7.80557e+15
1.08864e+16
-8.2563e+15
-9.11096e+15
-4.35114e+15
1.12902e+16
8.58029e+15
-4.00486e+15
-1.0929e+16
-5.22352e+15
1.05202e+16
8.35749e+15
-4.66233e+14
-1.30066e+16
-4.70925e+15
7.41126e+15
1.06833e+16
5.0907e+13
-1.19015e+16
-6.24381e+15
5.69256e+15
1.18886e+16
1.24514e+15
-1.11541e+16
-6.9902e+15
2.88002e+15
1.42827e+16
-2.04959e+14
-6.17309e+15
-1.31991e+16
6.96757e+15
8.32266e+15
7.38484e+15
-1.0806e+16
-8.66689e+15
3.48391e+14
1.24035e+16
5.44614e+15
-6.73823e+15
-1.17762e+16
9.55918e+14
9.38635e+15
9.68322e+15
-8.74187e+15
-8.17636e+15
-5.65013e+15
1.44466e+16
4.42408e+15
-2.03229e+14
-1.54279e+16
-2.9821e+14
6.78981e+15
1.17723e+16
-4.15846e+15
-1.07411e+16
-5.56717e+15
8.37082e+15
1.04308e+16
-6.40444e+14
-1.2123e+16
-5.3574e+15
5.14589e+15
1.3499e+16
-2.01288e+15
-7.74398e+15
-1.10025e+16
8.30714e+15
9.17967e+15
4.22827e+15
-1.12419e+16
-8.49621e+15
3.87258e+15
1.09621e+16
5.32818e+15
-1.06477e+16
-8.34138e+15
5.77027e+14
1.28851e+16
4.7121e+15
-7.29549e+15
-1.07939e+16
-5.92687e+13
1.20137e+16
6.142e+15
-5.70091e+15
-1.17776e+16
-1.34835e+15
1.11433e+16
7.10655e+15
-2.98281e+15
-3.07973e+15
-5.89333e+15
2.58475e+15
5.07632e+15
2.64123e+15
-4.65505e+15
-4.64614e+15
1.08452e+14
6.63096e+15
1.85829e+15
-2.27174e+15
-6.96721e+15
1.59611e+15
3.89698e+15
5.14357e+15
-4.16281e+15
-5.0577e+15
-9.60678e+14
4.72521e+15
5.08657e+15
-3.48876e+15
-4.12832e+15
-3.53316e+15
6.60599e+15
2.87164e+15
3.70299e+14
-7.23462e+15
-1.18039e+15
2.97775e+15
6.14236e+15
-1.23428e+15
-4.99905e+15
-4.02043e+15
4.45874e+15
4.13125e+15
2.13989e+15
-7.6894e+15
-1.17561e+15
-2.95244e+14
9.17781e+15
-2.53026e+15
-1.25128e+15
-8.0062e+15
5.3006e+15
2.63639e+15
4.70645e+15
-6.90243e+15
-2.88839e+15
-6.90086e+14
7.29973e+15
1.18524e+15
-2.10781e+15
-7.35178e+15
2.52559e+15
3.02587e+15
6.34546e+15
-6.40245e+15
-2.21581e+15
-4.10331e+15
8.77608e+15
7.4626e+14
5.13261e+14
-8.45337e+15
8.86428e+14
2.99722e+15
5.88604e+15
-2.49773e+15
-5.14873e+15
-2.65517e+15
4.7351e+15
4.58271e+15
-1.25005e+14
-6.54982e+15
-1.92387e+15
2.253e+15
7.05556e+15
-1.66262e+15
-3.92272e+15
-5.05062e+15
4.09779e+15
5.01854e+15
1.06549e+15
-4.77841e+15
-5.14419e+15
3.59284e+15
4.08654e+15
3.47103e+15
-6.50928e+15
-2.8991e+15
-4.42256e+14
7.32443e+15
1.16292e+15
-3.04245e+15
-6.05956e+15
1.21516e+15
4.93338e+15
4.10416e+15
-4.47357e+15
-4.20403e+15
-2.05261e+15
7.68049e+15
1.09253e+15
3.84333e+14
-9.17164e+15
2.43431e+15
1.32909e+15
8.03136e+15
-5.396e+15
-2.57547e+15
-4.66943e+15
6.81458e+15
2.93567e+15
7.29928e+14
-7.38067e+15
-1.14366e+15
2.14625e+15
7.27222e+15
-2.48233e+15
-2.98382e+15
-6.43259e+15
6.44336e+15
2.27346e+15
4.00679e+15
-8.74642e+15
-6.74709e+14
-6.05435e+14
8.4644e+15
-8.03025e+14
1.11499e+15
6.75646e+15
2.92541e+15
-5.2359e+15
-4.47875e+15
-1.58341e+15
9.44606e+15
-3.75357e+14
8.32963e+14
-1.12528e+16
4.70645e+15
1.01815e+15
8.92828e+15
-6.97752e+15
-3.28135e+15
-3.56669e+15
6.92811e+15
4.32684e+15
-1.73105e+15
-6.82911e+15
-1.74031e+15
4.19265e+15
6.99399e+15
-3.33537e+15
-3.50312e+15
-6.80568e+15
8.60215e+15
1.39937e+15
4.3353e+15
-1.06818e+16
1.77027e+14
1.96185e+14
8.75746e+15
-6.91077e+14
-5.3511e+15
-4.33542e+15
1.95801e+15
7.51736e+15
5.00841e+14
-4.44775e+15
-5.81593e+15
1.70266e+15
7.37411e+15
9.46221e+14
-2.67665e+15
-8.17881e+15
3.49274e+15
3.94713e+15
5.40077e+15
-5.38985e+15
-5.76353e+15
6.63028e+14
4.45184e+15
6.53238e+15
-6.28192e+15
-2.9913e+15
-4.63367e+15
9.18501e+15
1.75221e+15
1.08792e+12
-8.16823e+15
-9.65459e+14
4.86304e+15
5.38281e+15
-1.19295e+15
-6.81648e+15
-2.78625e+15
5.16153e+15
4.40763e+15
1.72603e+15
-9.50703e+15
2.81898e+14
-6.87003e+14
1.12128e+16
-4.8135e+15
-8.83798e+14
-8.94715e+15
6.86695e+15
3.40141e+15
3.55927e+15
-7.0391e+15
-4.2182e+15
1.73513e+15
6.7189e+15
1.84806e+15
-4.19078e+15
-7.10923e+15
3.4456e+15
3.52206e+15
6.67314e+15
-8.50059e+15
-1.36061e+15
-4.47471e+15
1.07724e+16
-1.17503e+14
-3.39852e+14
-8.68973e+15
7.69014e+14
5.21956e+15
4.38414e+15
-1.87847e+15
-7.64368e+15
-4.58477e+14
4.53383e+15
5.69034e+15
-1.66599e+15
-7.28427e+15
-1.07101e+15
2.70718e+15
8.28267e+15
-3.62587e+15
-3.93247e+15
-5.27873e+15
5.263e+15
5.75899e+15
-5.32112e+14
-4.56769e+15
-6.55689e+15
6.419e+15
2.88938e+15
4.59334e+15
-9.0504e+15
-1.8409e+15
-4.56798e+13
8.29649e+15
8.83426e+14
-4.91298e+15
-5.25163e+15
9.1623e+15
1.14061e+16
-2.4361e+15
-1.19258e+16
-7.23444e+15
9.37506e+15
1.04738e+16
1.32421e+15
-1.35397e+16
-6.47027e+15
5.41141e+15
1.32898e+16
1.31491e+15
-1.14409e+16
-8.585e+15
4.01358e+15
1.40662e+16
1.88645e+15
-8.45188e+15
-1.24919e+16
5.18551e+15
1.09072e+16
6.62144e+15
-1.02349e+16
-1.04978e+16
7.52651e+14
1.30085e+16
6.27941e+15
-6.89447e+15
-1.32009e+16
1.09319e+15
9.7776e+15
1.07451e+16
-8.86047e+15
-9.52296e+15
-5.63261e+15
1.45571e+16
6.086e+15
-1.00296e+15
-1.58368e+16
-1.35448e+15
7.55195e+15
1.28998e+16
-4.45734e+15
-1.09961e+16
-7.22776e+15
1.01753e+16
9.95287e+15
1.11886e+15
-1.44605e+16
-4.96256e+15
4.42395e+15
1.52851e+16
-2.22847e+15
-8.058e+15
-1.22099e+16
8.72861e+15
9.96548e+15
5.15854e+15
-1.2519e+16
-8.69233e+15
2.83412e+15
1.33147e+16
4.27412e+15
-9.23375e+15
-1.14694e+16
2.56443e+15
1.18652e+16
7.17401e+15
-9.25542e+15
-1.05341e+16
-1.38624e+15
1.3666e+16
6.41743e+15
-5.4869e+15
-1.31638e+16
-1.35652e+15
1.13514e+16
8.71249e+15
-4.0372e+15
-1.41723e+16
-1.77158e+15
8.45464e+15
1.23824e+16
-5.08707e+15
-1.08928e+16
-6.73258e+15
1.03222e+16
1.05249e+16
-8.60618e+14
-1.29327e+16
-6.24629e+15
6.78418e+15
1.32751e+16
-1.05152e+15
-9.8967e+15
-1.06757e+16
8.91763e+15
9.39385e+15
5.69265e+15
-1.44808e+16
-6.21898e+15
1.04662e+15
1.59322e+16
1.22122e+15
-7.52649e+15
-1.27938e+16
4.3372e+15
1.10039e+16
7.33379e+15
-1.02866e+16
-9.94856e+15
-1.00941e+15
1.4348e+16
4.9636e+15
-4.31287e+15
-1.53986e+16
2.2258e+15
8.18267e+15
1.20922e+16
-8.747e+15
-9.82467e+15
-5.26587e+15
1.24787e+16
8.8343e+15
-2.92474e+15
-1.3368e+16
-4.13646e+15
-5.23587e+14
5.83067e+15
4.52305e+15
-3.32272e+15
-6.66821e+15
-5.15715e+13
3.61138e+15
7.90964e+15
-6.11161e+15
-1.85604e+15
-7.06157e+15
1.02236e+16
4.01199e+14
3.2258e+15
-1.03129e+16
-2.34949e+12
2.48807e+15
6.83843e+15
-5.11853e+14
-6.74626e+15
-2.80766e+15
2.74311e+15
6.86848e+15
4.6686e+14
-6.61601e+15
-2.8647e+15
4.57404e+14
9.45241e+15
-2.08494e+15
-1.72452e+15
-8.7389e+15
5.16071e+15
3.97037e+15
3.85247e+15
-5.23585e+15
-6.28546e+15
2.72137e+15
3.98594e+15
6.10239e+15
-7.19939e+15
-3.21377e+15
-2.22515e+15
7.71236e+15
3.11622e+15
-3.39866e+15
-5.6286e+15
-2.03804e+15
7.27702e+15
3.1861e+15
-1.37296e+15
-6.94134e+15
-2.12367e+15
6.65922e+15
2.82913e+15
1.74727e+15
-1.06394e+16
2.05502e+15
-2.64428e+14
1.0492e+16
-5.01937e+15
-2.70962e+15
-6.24684e+15
5.8357e+15
5.11335e+15
5.12276e+14
-5.79424e+15
-4.54842e+15
3.31207e+15
6.70315e+15
2.55396e+13
-3.61833e+15
-7.87279e+15
6.07818e+15
1.85272e+15
7.10477e+15
-1.02667e+16
-4.10884e+14
-3.17014e+15
1.02719e+16
-1.57352e+13
-2.42933e+15
-6.87283e+15
4.83754e+14
6.80345e+15
2.78302e+15
-2.77157e+15
-6.82493e+15
-4.84798e+14
6.59612e+15
2.90415e+15
-4.80922e+14
-9.46654e+15
2.12465e+15
1.6941e+15
8.72573e+15
-5.11295e+15
-4.0013e+15
-3.87543e+15
5.28558e+15
6.26668e+15
-2.75388e+15
-3.94041e+15
-6.10908e+15
7.16551e+15
3.24258e+15
2.23066e+15
-7.73935e+15
-3.09656e+15
3.40262e+15
5.60785e+15
2.05475e+15
-7.27516e+15
-3.20267e+15
1.39059e+15
6.94182e+15
2.09818e+15
-6.63648e+15
-2.81701e+15
-1.78129e+15
1.06558e+16
-2.03209e+15
2.26327e+14
-1.04852e+16
5.05551e+15
2.67254e+15
6.24158e+15
-5.79491e+15
-5.14178e+15
6.83388e+15
-1.53469e+16
7.5921e+15
-3.56653e+15
1.03954e+16
-3.4097e+15
-7.02169e+15
2.04826e+15
-3.85875e+15
1.52531e+16
-1.16683e+16
6.0877e+15
-1.3861e+16
1.15526e+16
1.08218e+14
2.67817e+15
-4.14264e+15
-7.90985e+15
8.63376e+15
-1.75986e+15
8.99217e+15
-1.12973e+16
-2.70091e+14
3.47705e+14
3.65171e+15
7.52312e+15
-1.27448e+16
5.92804e+15
-1.16404e+16
1.86025e+16
-9.11614e+15
6.43634e+15
-1.25984e+16
4.05817e+15
4.70025e+15
1.04781e+15
2.13418e+15
-1.25114e+16
6.63653e+15
-1.68418e+15
9.16509e+15
-4.52935e+15
-6.46014e+15
2.41809e+15
-2.5638e+15
1.4544e+16
-1.29969e+16
6.43835e+15
-1.38495e+16
1.37199e+16
-1.83551e+15
3.19214e+15
-5.88183e+15
-6.29059e+15
9.52258e+15
-2.75923e+15
9.33878e+15
-1.40625e+16
3.63279e+15
-2.38622e+15
7.96514e+15
2.04654e+15
-9.11471e+15
2.57424e+15
-7.01717e+15
1.54123e+16
-7.47085e+15
3.37493e+15
-1.03381e+16
3.55542e+15
6.82574e+15
-2.01782e+15
4.02693e+15
-1.54403e+16
1.16722e+16
-5.90655e+15
1.36875e+16
-1.15673e+16
7.39371e+13
-2.83034e+15
4.10989e+15
8.09079e+15
-8.77829e+15
1.72523e+15
-8.81097e+15
1.11574e+16
2.2145e+14
-1.56744e+14
-3.78186e+15
-7.59153e+15
1.29452e+16
-6.04781e+15
1.15522e+16
-1.83988e+16
9.02079e+15
-6.54698e+15
1.27946e+16
-4.12674e+15
-4.82666e+15
-8.62448e+14
-2.18404e+15
1.23813e+16
-6.46568e+15
1.65323e+15
-9.30514e+15
4.69206e+15
6.44265e+15
-2.56326e+15
2.72467e+15
-1.45525e+16
1.28362e+16
-6.28103e+15
1.38688e+16
-1.38969e+16
1.97921e+15
-3.14947e+15
5.69334e+15
6.41942e+15
-9.45124e+15
2.56642e+15
-9.24107e+15
1.41554e+16
-3.81786e+15
2.47162e+15
-7.86676e+15
-2.22834e+15
9.1871e+15
-2.46335e+15
5.23858e+15
-5.28409e+15
9.74607e+15
-4.86094e+15
6.99705e+14
-4.70405e+15
2.13578e+15
3.86519e+15
-4.46922e+14
-9.41996e+14
-4.58115e+15
2.2031e+15
3.2211e+15
2.50296e+14
1.33553e+12
-6.78303e+15
5.05385e+15
-1.99019e+15
7.42083e+15
-7.59369e+15
1.55646e+15
-3.65543e+15
5.3001e+15
1.81649e+15
-2.81909e+15
-8.37335e+14
-4.19141e+15
7.26297e+15
-1.85003e+15
2.75018e+15
-6.52759e+15
8.57488e+14
2.02044e+15
2.34669e+15
7.93449e+14
-5.79453e+15
1.33858e+15
-4.80675e+14
5.42436e+15
-1.42733e+15
-3.52825e+15
-1.23972e+14
-1.39727e+15
8.10611e+15
-5.7596e+15
3.53994e+15
-9.25492e+15
8.02487e+15
-2.29024e+15
5.33687e+15
-6.19939e+15
-6.45145e+14
3.74751e+14
3.07434e+15
2.30233e+15
-3.8709e+15
-2.11098e+15
5.86885e+14
2.14252e+15
4.26508e+15
-6.29982e+15
2.2265e+15
-6.47135e+15
1.05183e+16
-5.32157e+15
5.21131e+15
-9.59582e+15
4.78972e+15
-7.79831e+14
4.85016e+15
-2.1972e+15
-3.95058e+15
5.90363e+14
8.84033e+14
4.49327e+15
-2.05442e+15
-3.28044e+15
-3.45359e+14
1.52153e+14
6.73175e+15
-5.16314e+15
2.14661e+15
-7.45991e+15
7.47241e+15
-1.40521e+15
3.63649e+15
-5.42794e+15
-1.68338e+15
2.81779e+15
7.11674e+14
4.30955e+15
-7.2554e+15
1.73207e+15
-2.64519e+15
6.53831e+15
-9.70176e+14
-1.91918e+15
-2.33018e+15
-9.13504e+14
5.89138e+15
-1.30892e+15
3.55634e+14
-5.34027e+15
1.48093e+15
3.39622e+15
1.84812e+14
1.47376e+15
-8.22937e+15
5.7957e+15
-3.45387e+15
9.14332e+15
-8.00878e+15
2.38326e+15
-5.43722e+15
6.20554e+15
7.38841e+14
-4.74342e+14
-3.07303e+15
-2.19725e+15
3.76788e+15
2.09694e+15
-4.63581e+14
-2.24694e+15
-4.2956e+15
6.43983e+15
-2.32503e+15
6.41689e+15
-1.03684e+16
-1.11271e+16
4.19443e+14
1.3231e+16
4.31741e+15
-3.70827e+15
-1.55512e+16
3.64986e+15
6.70765e+15
1.24633e+16
-9.53156e+15
-8.5613e+15
-5.32045e+15
1.23725e+16
7.95259e+15
-2.95279e+15
-1.28471e+16
-3.29844e+15
8.17473e+15
1.20061e+16
-4.47075e+15
-8.88333e+15
-9.72308e+15
1.26745e+16
5.9987e+15
4.97524e+15
-1.70211e+16
-1.94772e+15
1.62731e+15
1.61035e+16
-2.27849e+15
-8.16477e+15
-1.0524e+16
6.32667e+15
1.11717e+16
3.78914e+15
-1.06944e+16
-8.75831e+15
1.90274e+15
1.42088e+16
1.80336e+15
-5.39097e+15
-1.46587e+16
5.79144e+15
7.65437e+15
1.0335e+16
-1.11088e+16
-8.495e+15
-2.06907e+15
1.23173e+16
7.66945e+15
-6.78841e+15
-1.06697e+16
-3.49072e+15
1.22756e+16
7.46393e+15
-3.32597e+15
-1.26604e+16
-3.66025e+15
1.02332e+16
9.08373e+15
-1.5294e+15
-1.34037e+16
-3.96247e+15
7.58414e+15
1.11732e+16
-3.52954e+14
-1.3327e+16
-4.292e+15
3.77567e+15
1.54635e+16
-3.6311e+15
-6.63861e+15
-1.25485e+16
9.54783e+15
8.63456e+15
5.23311e+15
-1.2363e+16
-7.86645e+15
2.85792e+15
1.28398e+16
3.40651e+15
-8.26478e+15
-1.20362e+16
4.58515e+15
8.81062e+15
9.67534e+15
-1.25575e+16
-6.06151e+15
-5.03412e+15
1.71334e+16
1.89656e+15
-1.68326e+15
-1.59969e+16
2.22436e+15
8.10526e+15
1.06401e+16
-6.37984e+15
-1.12422e+16
-3.66642e+15
1.06464e+16
8.67649e+15
-1.77367e+15
-1.42456e+16
-1.90097e+15
5.51631e+15
1.46402e+16
-5.89394e+15
-7.54262e+15
-1.03406e+16
1.1009e+16
8.59726e+15
2.07028e+15
-1.24158e+16
-7.57724e+15
6.79379e+15
1.05769e+16
3.58036e+15
-1.22689e+16
-7.56253e+15
3.41761e+15
1.268e+16
3.55299e+15
-1.0151e+16
-9.05132e+15
1.41954e+15
1.34707e+16
4.01631e+15
-7.69527e+15
-1.38135e+16
-1.9034e+15
1.69162e+15
1.2514e+16
-9.84548e+14
-7.46798e+15
-7.89148e+15
4.38781e+15
9.83265e+15
2.47062e+15
-8.06924e+15
-7.77339e+15
1.94202e+15
1.11059e+16
2.31581e+15
-5.23661e+15
-1.09144e+16
3.46084e+15
7.5426e+15
6.99456e+15
-7.36381e+15
-8.93129e+15
1.85366e+14
8.07495e+15
8.21522e+15
-7.22471e+15
-6.95163e+15
-4.56036e+15
1.1559e+16
4.80004e+15
-1.40547e+15
-1.16463e+16
-1.7398e+15
6.82102e+15
8.99255e+15
-2.69854e+15
-9.33485e+15
-5.09577e+15
8.08561e+15
7.12333e+15
1.82804e+15
-1.28277e+16
-1.74225e+15
1.34358e+15
1.42688e+16
-4.26767e+15
-4.19702e+15
-1.12841e+16
8.51262e+15
6.25832e+15
5.07436e+15
-1.08319e+16
-5.8291e+15
1.62622e+15
1.12711e+16
2.05896e+15
-5.6708e+15
-1.08493e+16
4.56541e+15
6.38931e+15
8.63393e+15
-1.07988e+16
-4.6485e+15
-4.34733e+15
1.38441e+16
1.98515e+15
-1.802e+15
-1.24975e+16
1.08752e+15
7.35828e+15
7.88712e+15
-4.27355e+15
-9.9299e+15
-2.49164e+15
8.18666e+15
7.68511e+15
-1.97342e+15
-1.0991e+16
-2.39439e+15
5.20137e+15
1.10289e+16
-3.53863e+15
-7.57994e+15
-6.87567e+15
7.28299e+15
8.88544e+15
-5.66427e+13
-8.15229e+15
-8.27421e+15
7.36041e+15
6.88454e+15
4.48696e+15
-1.14246e+16
-4.85117e+15
1.31914e+15
1.17696e+16
1.70886e+15
-6.90888e+15
-8.88081e+15
2.67492e+15
9.25089e+15
5.1998e+15
-8.10651e+15
-7.20671e+15
-1.72771e+15
1.28105e+16
1.65312e+15
-1.23774e+15
-1.42758e+16
4.16508e+15
4.29653e+15
1.12993e+16
-8.62457e+15
-6.17737e+15
-5.03762e+15
1.07196e+16
5.89323e+15
-1.57453e+15
-1.13748e+16
-2.01375e+15
5.72676e+15
1.07544e+16
-4.52572e+15
-6.3335e+15
-8.73169e+15
1.08364e+16
4.71699e+15
4.24412e+15
-2.57937e+15
3.90912e+15
-1.48684e+15
5.78735e+15
-8.7516e+15
4.92757e+15
-5.84978e+15
9.24e+15
-5.13319e+15
2.59829e+15
-5.56175e+15
2.68497e+15
1.81294e+15
1.10447e+15
-1.43848e+15
-3.07843e+15
7.19201e+14
2.87242e+15
-2.08601e+12
1.29899e+15
-6.86053e+15
5.49321e+15
-3.88787e+15
8.61172e+15
-8.28243e+15
4.03944e+15
-6.39986e+15
6.99258e+15
-1.21791e+15
7.85181e+14
-3.06083e+15
-1.50962e+15
3.56753e+15
3.2118e+14
1.41613e+15
-4.05649e+15
-8.58318e+14
2.74288e+15
2.64297e+14
3.08398e+15
-6.63329e+15
3.06023e+15
-3.30508e+15
7.1441e+15
-3.63776e+15
1.6904e+14
-2.97351e+15
7.90632e+14
4.47889e+15
-2.45832e+15
1.88186e+15
-6.83678e+15
5.67869e+15
-1.72648e+15
4.39453e+15
-4.28732e+15
-1.26566e+15
3.85587e+14
1.70922e+15
3.00277e+15
-3.76772e+15
-5.24298e+14
-1.24855e+15
2.76807e+15
2.75771e+15
-3.95964e+15
1.34901e+15
-5.60932e+15
8.72221e+15
-5.0792e+15
6.02583e+15
-9.25355e+15
4.95911e+15
-2.42396e+15
5.58127e+15
-2.88318e+15
-1.65874e+15
-1.05237e+15
1.23927e+15
3.21442e+15
-6.49462e+14
-3.07377e+15
1.19893e+14
-1.21137e+15
6.66293e+15
-5.3889e+15
3.98046e+15
-8.81191e+15
8.38875e+15
-3.93032e+15
6.18221e+15
-6.90016e+15
1.35228e+15
-1.00626e+15
3.13478e+15
1.66318e+15
-3.78649e+15
-2.70677e+14
-1.2404e+15
3.85057e+15
8.78201e+14
-2.56653e+15
-4.50616e+14
-3.07351e+15
6.80873e+15
-3.24106e+15
3.30156e+15
-6.95984e+15
3.46613e+15
-1.84092e+14
3.15892e+15
-9.5941e+14
-4.50837e+15
2.6602e+15
-2.03681e+15
6.77727e+15
-5.47213e+15
1.59664e+15
-4.47642e+15
4.48981e+15
1.15667e+15
-4.89876e+14
-1.5105e+15
-3.08207e+15
3.64821e+15
7.07981e+14
1.18722e+15
-2.88954e+15
8.09277e+14
7.46296e+15
5.45507e+15
-1.16134e+15
-1.18693e+16
6.91445e+14
4.17112e+15
9.66837e+15
-3.56199e+15
-8.74694e+15
-2.55703e+15
3.95608e+15
1.12592e+16
-4.5709e+15
-4.9565e+15
-8.13782e+15
7.72512e+15
7.36234e+15
-4.04161e+13
-6.12448e+15
-9.61343e+15
9.1214e+15
3.09303e+15
7.72053e+15
-1.36139e+16
-1.4113e+15
-1.42557e+15
1.2093e+16
1.09506e+15
-6.29338e+15
-7.18489e+15
7.5194e+14
1.0098e+16
3.03569e+15
-5.54183e+15
-7.56537e+15
-1.64563e+15
1.21995e+16
1.17891e+14
1.31938e+15
-1.56938e+16
6.66636e+15
6.28487e+14
1.3191e+16
-9.76698e+15
-4.25674e+15
-5.21473e+15
9.09587e+15
6.61274e+15
-3.0855e+15
-7.87751e+15
-4.4609e+15
7.29926e+15
8.03323e+15
-2.82576e+15
-5.85932e+15
-8.71111e+15
1.09354e+16
2.33598e+15
6.43282e+15
-1.48324e+16
3.12476e+14
-2.78469e+14
1.22082e+16
-6.96636e+14
-7.48198e+15
-5.54327e+15
1.24953e+15
1.18705e+16
-7.70528e+14
-4.09383e+15
-9.66711e+15
3.47919e+15
8.82302e+15
2.56955e+15
-4.04434e+15
-1.11905e+16
4.59597e+15
4.85719e+15
8.21109e+15
-7.68341e+15
-7.47972e+15
9.66714e+13
6.19331e+15
9.4989e+15
-9.08542e+15
-3.01197e+15
-7.83589e+15
1.36417e+16
1.50422e+15
1.3145e+15
-1.20834e+16
-1.00035e+15
6.19033e+15
7.19757e+15
-6.55456e+14
-1.02138e+16
-3.02271e+15
5.65113e+15
7.44919e+15
1.64582e+15
-1.20824e+16
-2.37831e+14
-1.32446e+15
1.58277e+16
-6.78376e+15
-6.58545e+14
-1.30532e+16
9.6722e+15
4.21702e+15
5.34157e+15
-9.18562e+15
-6.65207e+15
3.21022e+15
7.8002e+15
4.41895e+15
-7.18829e+15
-8.10818e+15
2.78828e+15
5.97959e+15
8.63069e+15
-1.09888e+16
-2.21038e+15
-6.49016e+15
1.47643e+16
-1.93942e+14
2.35636e+14
-1.22899e+16
3.52538e+15
-2.51733e+15
4.27966e+15
-2.10209e+15
7.0402e+13
-2.27929e+15
1.81575e+15
6.97822e+14
1.53606e+15
-3.30298e+15
1.37448e+15
-2.75737e+15
5.67289e+15
-4.12115e+15
3.78465e+15
-6.84992e+15
5.82458e+15
-3.27952e+15
4.88966e+15
-4.4974e+15
9.78164e+14
-1.59163e+15
2.64515e+15
5.33401e+14
-1.09446e+15
-1.22106e+15
-2.59712e+14
1.2308e+15
1.99692e+15
-2.20399e+15
3.5566e+14
-2.96166e+15
4.51408e+15
-2.09533e+15
2.72285e+15
-4.38774e+15
1.40418e+15
1.70253e+14
1.79856e+15
1.29532e+14
-2.98837e+15
1.37175e+15
-1.70938e+15
4.60774e+15
-3.06424e+15
1.04101e+15
-3.10719e+15
2.49096e+15
6.17685e+14
5.17664e+14
-1.23218e+15
-1.75082e+15
1.1379e+15
1.63131e+15
-1.2041e+14
-1.63959e+14
-3.24521e+15
3.20372e+15
-1.96795e+15
5.13325e+15
-6.3523e+15
3.81461e+15
-4.93608e+15
6.4593e+15
-3.46673e+15
2.6762e+15
-4.48422e+15
2.12921e+15
1.08556e+14
2.08607e+15
-1.81023e+15
-5.02978e+14
-1.72959e+15
3.27649e+15
-1.1524e+15
2.59225e+15
-5.74284e+15
4.34575e+15
-3.92723e+15
6.76306e+15
-5.59618e+15
3.15142e+15
-5.0036e+15
4.72516e+15
-1.07967e+15
1.46736e+15
-2.41707e+15
-6.39202e+14
9.57186e+14
1.46839e+15
1.70171e+14
-1.4031e+15
-1.74805e+15
2.14059e+15
-5.4627e+14
3.21341e+15
-4.55935e+15
1.87892e+15
-2.4848e+15
4.38238e+15
-1.62641e+15
4.32372e+13
-1.79471e+15
-3.45246e+14
3.20026e+15
-1.35679e+15
1.48339e+15
-4.41047e+15
3.09691e+15
-1.26919e+15
3.30065e+15
-2.44756e+15
-8.6024e+14
-3.34665e+14
1.3116e+15
1.50166e+15
-9.91964e+14
-1.52822e+15
-1.19045e+14
2.90263e+14
3.36497e+15
-3.43635e+15
2.06218e+15
-4.99269e+15
6.13991e+15
-3.74793e+15
5.077e+15
-6.66753e+15
-4.50248e+15
-8.10768e+15
-2.65796e+15
8.07114e+15
6.66879e+15
-2.69407e+15
-8.75354e+15
-3.57139e+15
7.51984e+15
6.49882e+15
4.87668e+13
-1.06373e+16
-2.35391e+15
3.6917e+15
1.05471e+16
-2.67201e+15
-5.95924e+15
-7.70625e+15
6.77462e+15
6.81391e+15
2.88093e+15
-9.85123e+15
-4.37209e+15
1.46424e+15
1.10815e+16
-7.45601e+13
-4.50332e+15
-1.03607e+16
5.76136e+15
5.35453e+15
7.17319e+15
-1.01607e+16
-4.11417e+15
-2.71094e+15
1.23291e+16
1.40454e+15
-2.52108e+15
-1.11166e+16
2.42272e+15
5.6827e+15
8.25671e+15
-6.75851e+15
-6.41353e+15
-3.92686e+15
1.03588e+16
3.90465e+15
-2.76709e+14
-1.18025e+16
1.91519e+14
4.00193e+15
1.051e+16
-4.84055e+15
-6.32441e+15
-6.01724e+15
7.79112e+15
6.74708e+15
4.89746e+14
-9.51142e+15
-4.39726e+15
4.70462e+15
8.80906e+15
3.00731e+14
-7.66224e+15
-6.61926e+15
4.50974e+15
8.30004e+15
2.47732e+15
-8.09444e+15
-6.47397e+15
2.53388e+15
8.72004e+15
3.76163e+15
-7.67566e+15
-6.54011e+15
1.54775e+14
1.04886e+16
2.28791e+15
-3.47911e+15
-1.06851e+16
2.58723e+15
6.18406e+15
7.58375e+15
-6.89236e+15
-6.58578e+15
-2.96721e+15
9.71235e+15
4.5853e+15
-1.53296e+15
-1.12281e+16
2.82355e+14
4.45669e+15
1.02019e+16
-5.56708e+15
-5.38554e+15
-7.33379e+15
1.03549e+16
4.09001e+15
2.53122e+15
-1.2136e+16
-1.40113e+15
2.32488e+15
1.12988e+16
-2.39732e+15
-5.89034e+15
-8.08623e+15
6.81306e+15
6.1941e+15
4.06941e+15
-1.02765e+16
-4.11676e+15
3.98911e+14
1.18941e+16
-3.98318e+14
-3.89535e+15
-1.0404e+16
4.63441e+15
6.41558e+15
6.13419e+15
-7.99879e+15
-6.66137e+15
-3.55493e+14
9.29499e+15
4.46112e+15
-4.54181e+15
-9.02149e+15
-2.70145e+14
7.84357e+15
6.42009e+15
-1.3811e+16
1.41285e+14
-3.22542e+15
1.83081e+16
-7.05852e+15
-1.45236e+14
-1.46588e+16
8.97253e+15
6.16896e+15
4.67587e+15
-7.26077e+15
-1.0101e+16
4.89928e+15
6.35792e+15
7.51311e+15
-8.84943e+15
-8.14775e+15
1.59806e+15
6.46673e+15
1.03003e+16
-1.14071e+16
-2.64559e+15
-7.82244e+15
1.54276e+16
1.25931e+15
-3.7866e+14
-1.163e+16
-2.43284e+15
1.04003e+16
3.8542e+15
2.20029e+15
-1.55819e+16
2.29519e+15
2.10244e+15
1.23987e+16
-3.81504e+15
-9.14676e+15
-3.59042e+15
3.54565e+15
1.28524e+16
-4.27874e+15
-5.20784e+15
-9.18655e+15
6.74225e+15
9.74981e+15
-9.98098e+14
-4.36006e+15
-1.32214e+16
1.1334e+16
1.46561e+15
1.11097e+16
-1.57135e+16
-1.45414e+15
-2.41865e+15
1.27711e+16
2.74189e+15
-7.36361e+15
-7.05674e+15
-1.31891e+15
1.19834e+16
3.3903e+15
-5.16154e+15
-8.34846e+15
-3.18413e+15
1.37604e+16
-6.20371e+13
3.20217e+15
-1.83728e+16
7.14208e+15
1.35227e+14
1.45838e+16
-8.89305e+15
-6.16449e+15
-4.76035e+15
7.33458e+15
1.01212e+16
-4.98817e+15
-6.30035e+15
-7.48247e+15
8.77046e+15
8.19685e+15
-1.56853e+15
-6.54578e+15
-1.02525e+16
1.14411e+16
2.56771e+15
7.86874e+15
-1.53969e+16
-1.34399e+15
4.30165e+14
1.16788e+16
2.33613e+15
-1.03634e+16
-3.79156e+15
-2.29302e+15
1.56057e+16
-2.22273e+15
-2.19038e+15
-1.2393e+16
3.8904e+15
9.07639e+15
3.58841e+15
-3.47913e+15
-1.29181e+16
4.2801e+15
5.27265e+15
9.11772e+15
-6.74194e+15
-9.67631e+15
9.26271e+14
4.3529e+15
1.33046e+16
-1.14052e+16
-1.48988e+15
-1.10159e+16
1.56561e+16
1.4111e+15
2.50927e+15
-1.281e+16
-2.79053e+15
7.44421e+15
7.02717e+15
1.26847e+15
-1.19088e+16
-3.41403e+15
5.11312e+15
8.42094e+15
3.15984e+15
-8.26869e+15
1.00362e+16
-2.3844e+15
8.66963e+15
-1.27601e+16
2.25537e+15
-1.94964e+15
7.90288e+15
1.49168e+15
-7.13691e+15
-5.46903e+14
-3.20749e+15
1.07818e+16
-2.23582e+15
-1.27091e+15
-6.01669e+15
-6.0864e+14
9.79803e+15
-3.81246e+15
4.9779e+15
-1.51865e+16
1.02535e+16
-4.40336e+15
1.22771e+16
-9.87234e+15
-9.98809e+14
-2.88875e+15
4.78009e+15
6.43226e+15
-5.72455e+15
-1.73951e+15
-5.31421e+15
7.31317e+15
3.82087e+15
-2.86388e+15
-1.73141e+15
-8.77037e+15
1.2353e+16
-4.37269e+15
9.42049e+15
-1.53358e+16
5.65116e+15
-3.55247e+15
1.00941e+16
-1.76172e+15
-5.87975e+15
-1.07462e+15
-1.61697e+15
1.08929e+16
-4.27389e+15
-3.32555e+14
-7.4689e+15
2.94652e+15
7.16752e+15
-1.84569e+15
1.16651e+15
-1.1882e+16
8.89602e+15
-2.03659e+15
9.46707e+15
-8.98156e+15
-2.48458e+15
2.10664e+14
2.98588e+15
8.1917e+15
-9.89127e+15
2.32416e+15
-8.7558e+15
1.28987e+16
-2.30435e+15
1.85886e+15
-7.75873e+15
-1.54205e+15
7.03144e+15
7.01686e+14
3.17257e+15
-1.09106e+16
2.39168e+15
1.25518e+15
5.87127e+15
7.6246e+14
-9.7899e+15
3.65177e+15
-4.84303e+15
1.52165e+16
-1.04093e+16
4.52524e+15
-1.22444e+16
9.71812e+15
1.11667e+15
2.92915e+15
-4.93524e+15
-6.31984e+15
5.76995e+15
1.57553e+15
5.42861e+15
-7.25225e+15
-3.9951e+15
2.96403e+15
1.8136e+15
8.59675e+15
-1.22746e+16
4.47042e+15
-9.58846e+15
1.53958e+16
-5.54484e+15
3.39864e+15
-1.00556e+16
1.87177e+15
5.73996e+15
1.10338e+15
1.7257e+15
-1.10298e+16
4.29519e+15
4.49682e+14
7.33791e+15
-2.94126e+15
-7.03901e+15
1.71674e+15
-1.17798e+15
1.20253e+16
-9.01556e+15
1.99743e+15
-9.31539e+15
8.88694e+15
2.42051e+15
-6.03926e+13
-3.06184e+15
5.28623e+15
1.75217e+15
-2.38481e+15
-6.27235e+15
2.97157e+15
1.363e+15
6.88204e+15
-7.23905e+15
-6.33262e+13
-5.15626e+15
8.91437e+15
-3.91433e+14
8.27472e+14
-7.09606e+15
3.6552e+14
3.34111e+15
4.05308e+15
-1.0402e+15
-5.79586e+15
-9.74465e+14
3.27083e+15
4.05542e+15
1.87214e+14
-6.41796e+15
-3.70639e+14
6.70337e+14
7.43434e+15
-2.94575e+15
-2.16051e+15
-5.00324e+15
3.76461e+15
4.42003e+15
2.90615e+14
-3.17412e+15
-5.63555e+15
4.78007e+15
1.69925e+15
4.54396e+15
-6.79696e+15
-1.89285e+15
-3.19215e+14
5.93291e+15
1.55053e+15
-3.56675e+15
-3.96738e+15
-2.58173e+12
5.15702e+15
2.79801e+15
-3.73081e+15
-3.32096e+15
-2.32069e+15
7.64911e+15
-6.98982e+14
2.27922e+15
-9.82855e+15
3.96504e+15
-1.67967e+14
7.62847e+15
-5.07162e+15
-2.23166e+15
-3.60553e+15
5.16938e+15
3.47217e+15
-5.65085e+14
-5.3534e+15
-1.51784e+15
2.23907e+15
6.17336e+15
-2.73794e+15
-1.48018e+15
-7.00426e+15
7.46648e+15
-2.99416e+13
5.01672e+15
-8.69426e+15
3.18681e+14
-9.77657e+14
7.31475e+15
-4.26428e+14
-3.50871e+15
-3.83069e+15
9.99459e+14
5.60508e+15
1.19508e+15
-3.28862e+15
-4.26546e+15
3.02982e+13
6.43013e+15
1.37997e+14
-4.70889e+14
-7.39122e+15
2.70807e+15
2.33993e+15
5.06746e+15
-4.0042e+15
-4.25721e+15
-2.09009e+14
2.93776e+15
5.78404e+15
-4.6898e+15
-1.93822e+15
-4.40112e+15
6.90262e+15
1.64455e+15
4.48053e+14
-5.79996e+15
-1.80577e+15
3.67224e+15
4.12463e+15
-2.4888e+14
-5.08119e+15
-2.6196e+15
3.49612e+15
3.36326e+15
2.50725e+15
-7.86205e+15
7.2203e+14
-2.09238e+15
9.6266e+15
-3.95675e+15
3.60829e+14
-7.82164e+15
5.06274e+15
2.43717e+15
3.41841e+15
-5.2038e+15
-3.24796e+15
3.90758e+14
5.87871e+15
-5.11799e+15
-7.26818e+15
-2.78048e+15
9.09958e+15
4.76377e+15
-1.77701e+15
-9.51767e+15
-2.15651e+15
6.87383e+15
6.76856e+15
-1.3866e+15
-9.21297e+15
-3.03428e+15
5.41676e+15
7.98313e+15
-3.986e+14
-9.17952e+15
-3.36714e+15
3.06842e+15
1.05595e+16
-2.16088e+15
-4.99486e+15
-8.73006e+15
6.54067e+15
6.36567e+15
3.36004e+15
-8.39635e+15
-5.90497e+15
2.36736e+15
8.74638e+15
2.91962e+15
-6.43385e+15
-7.81001e+15
2.39539e+15
7.11087e+15
5.9118e+15
-7.90303e+15
-5.27657e+15
-2.69979e+15
1.13528e+16
2.0936e+15
-1.92751e+15
-1.05639e+16
7.70996e+14
6.46056e+15
6.93445e+15
-3.90837e+15
-8.59985e+15
-1.84847e+15
6.70338e+15
7.05857e+15
-2.21733e+15
-9.10279e+15
-2.4116e+15
4.88916e+15
9.43241e+15
-3.30259e+15
-6.06304e+15
-6.62211e+15
7.11044e+15
6.78863e+15
9.12611e+14
-8.38835e+15
-5.70904e+15
5.04838e+15
7.16173e+15
2.95357e+15
-9.15043e+15
-4.88995e+15
1.93984e+15
9.4908e+15
2.02517e+15
-6.72924e+15
-6.77776e+15
1.25791e+15
9.34483e+15
3.0345e+15
-5.54377e+15
-7.86382e+15
4.04655e+14
9.05332e+15
3.48563e+15
-3.05333e+15
-1.06988e+16
2.27667e+15
5.03333e+15
8.57953e+15
-6.44484e+15
-6.30485e+15
-3.51236e+15
8.47107e+15
5.98977e+15
-2.51479e+15
-8.69766e+15
-2.82314e+15
6.30083e+15
7.84255e+15
-2.29778e+15
-7.24127e+15
-5.88482e+15
8.01084e+15
5.14498e+15
2.71677e+15
-1.12328e+16
-2.22768e+15
1.93187e+15
1.07028e+16
-9.07931e+14
-6.47992e+15
-6.77625e+15
3.78406e+15
8.55791e+15
2.0103e+15
-6.8128e+15
-7.11653e+15
2.3821e+15
9.0055e+15
2.34124e+15
-4.72983e+15
-9.51755e+15
3.23186e+15
6.22107e+15
6.53659e+15
-7.18926e+15
-6.62374e+15
-9.91035e+14
8.29567e+15
4.9875e+15
1.52825e+14
-5.61185e+15
-5.69783e+14
-3.15647e+14
7.27165e+15
-2.52133e+15
-1.05643e+15
-5.43648e+15
3.12406e+15
4.29844e+15
2.92799e+14
-2.07787e+15
-5.7004e+15
3.62759e+15
1.74039e+15
4.30448e+15
-5.14128e+15
-2.98677e+15
7.95241e+14
3.11381e+15
4.30298e+15
-5.28296e+15
-1.1945e+15
-3.35354e+15
7.23495e+15
4.28269e+14
-6.88369e+14
-4.7813e+15
-1.23764e+15
5.08694e+15
1.42928e+15
8.25464e+14
-7.27811e+15
1.36385e+15
1.39967e+15
4.89564e+15
-1.08488e+15
-5.13269e+15
-4.07214e+14
8.17446e+14
6.87573e+15
-3.57303e+15
-1.23942e+15
-4.9839e+15
4.0723e+15
3.67744e+15
6.98537e+13
-2.93253e+15
-4.96391e+15
4.68362e+15
1.3033e+15
3.93023e+15
-6.16604e+15
-1.95301e+15
7.69719e+14
4.26668e+15
2.579e+15
-5.22591e+15
-1.23043e+15
-2.21031e+15
7.17763e+15
-1.39017e+14
-1.3833e+15
-4.83811e+15
3.88438e+13
5.28267e+15
6.96982e+14
5.25923e+14
-7.60012e+15
2.62112e+15
1.2924e+15
5.11302e+15
-3.04911e+15
-4.03541e+15
-6.20837e+14
2.12078e+15
5.99695e+15
-3.94333e+15
-1.74652e+15
-3.98772e+15
4.85175e+15
2.94594e+15
-4.63326e+14
-3.3839e+15
-4.38049e+15
5.62076e+15
9.5506e+14
3.25034e+15
-6.89907e+15
-6.50082e+14
5.63973e+14
5.12999e+15
1.03261e+15
-5.24254e+15
-1.07849e+15
-1.00491e+15
7.09362e+15
-1.00592e+15
-1.55338e+15
-5.1155e+15