# vtk DataFile Version 3.0
PFC simulation results
ASCII
DATASET STRUCTURED_POINTS
DIMENSIONS 256 256 1
ORIGIN 0 0 0
SPACING 1 1 1
POINT_DATA 65536
SCALARS psi double
LOOKUP_TABLE default
-0.246514
-0.397803
-0.265631
0.0705887
0.40236
0.529945
0.370825
-0.00901689
-0.419008
-0.649394
-0.591771
-0.277454
0.140965
0.464462
0.556419
0.386317
0.0239347
-0.371806
-0.619596
-0.610812
-0.349786
0.0474127
0.398114
0.550401
0.445225
0.12228
-0.281382
-0.579895
-0.638373
-0.431557
-0.0506378
0.328602
0.537523
0.49339
0.212836
-0.18838
-0.527427
-0.649494
-0.501624
-0.148227
0.248697
0.50935
0.527511
0.296358
-0.091487
-0.462115
-0.644899
-0.559693
-0.243297
0.160737
0.467072
0.547126
0.370602
0.00638004
-0.385748
-0.624643
-0.604195
-0.333199
0.0669532
0.411557
0.551827
0.433796
0.102553
-0.300344
-0.589219
-0.634028
-0.41548
-0.0301635
0.344042
0.541521
0.484488
0.19444
-0.208212
-0.539495
-0.648466
-0.487931
-0.127978
0.266105
0.516415
0.521568
0.27963
-0.111875
-0.476718
-0.647161
-0.548652
-0.2238
0.179652
0.477023
0.544255
0.355967
-0.0139913
-0.402502
-0.630144
-0.596088
-0.314989
0.0868845
0.424178
0.552087
0.421598
0.0827534
-0.318802
-0.597826
-0.629055
-0.399052
-0.00975065
0.359049
0.544905
0.475002
0.175741
-0.227871
-0.550996
-0.646747
-0.473722
-0.107641
0.28314
0.522855
0.514997
0.262516
-0.132196
-0.490822
-0.648737
-0.537031
-0.2041
0.198291
0.486386
0.540737
0.340864
-0.0344125
-0.418842
-0.634978
-0.58735
-0.296469
0.106647
0.436264
0.551691
0.408866
0.0627899
-0.336944
-0.6058
-0.623416
-0.382214
0.0106073
0.373585
0.547641
0.46493
0.156771
-0.247324
-0.561914
-0.644343
-0.459018
-0.087242
0.299785
0.528667
0.507805
0.245034
-0.152424
-0.50441
-0.649626
-0.524844
-0.184222
0.216634
0.495154
0.536573
0.32531
-0.0548592
-0.434749
-0.639139
-0.57799
-0.277659
0.126217
0.447802
0.550641
0.395613
0.0426856
-0.354749
-0.613133
-0.617116
-0.364986
0.030886
0.387636
0.549726
0.454283
0.137551
-0.266546
-0.572239
-0.641256
-0.443834
-0.0668051
0.316021
0.533844
0.499997
0.227204
-0.172537
-0.517468
-0.649827
-0.512103
-0.164189
0.23466
0.503318
0.531768
0.30932
-0.0753068
-0.450205
-0.642623
-0.568018
-0.258582
0.145572
0.45878
0.548938
0.381853
0.0224642
-0.372197
-0.619816
-0.610162
-0.347386
0.0510627
0.401186
0.551154
0.443069
0.118108
-0.285505
-0.581954
-0.637505
-0.428212
-0.0463582
0.331872
0.538442
0.491582
0.208932
-0.192663
-0.529988
-0.649078
-0.498458
-0.144017
0.251682
0.509912
0.526165
0.294463
-0.0931223
-0.464058
-0.648179
-0.563367
-0.243072
0.169594
0.483506
0.560441
0.363897
-0.029212
-0.434216
-0.64666
-0.561092
-0.22389
0.178218
0.417402
0.369545
0.0835501
-0.139951
-0.278306
-0.157707
0.148516
0.450021
0.566102
0.421782
0.0751957
-0.301712
-0.515007
-0.461497
-0.171127
0.212294
0.506697
0.590079
0.435737
0.105626
-0.257532
-0.48669
-0.478534
-0.237215
0.127101
0.446419
0.584519
0.489176
0.195425
-0.174267
-0.449886
-0.504138
-0.312661
0.0374367
0.383277
0.57286
0.532861
0.277956
-0.0888092
-0.401284
-0.514463
-0.377409
-0.0519684
0.310603
0.547329
0.563788
0.353963
3.61646e-05
-0.340884
-0.510196
-0.431163
-0.139249
0.23049
0.508996
0.58156
0.421438
0.0895911
-0.27039
-0.49139
-0.472417
-0.221961
0.144932
0.458625
0.585819
0.478808
0.177427
-0.191713
-0.458528
-0.500102
-0.297819
0.0561722
0.397309
0.576483
0.52479
0.261201
-0.107017
-0.412456
-0.513509
-0.364746
-0.0334017
0.326445
0.553732
0.558402
0.338749
-0.0186435
-0.35438
-0.512297
-0.420936
-0.121334
0.247728
0.51802
0.57896
0.408144
0.0709646
-0.285844
-0.496497
-0.464898
-0.205193
0.163128
0.470081
0.586054
0.467739
0.159357
-0.208703
-0.46651
-0.495486
-0.282661
0.0748427
0.410944
0.579549
0.516188
0.244164
-0.125075
-0.423107
-0.511912
-0.351611
-0.0147633
0.341942
0.559569
0.552448
0.323179
-0.0372689
-0.367419
-0.513761
-0.410176
-0.103241
0.26471
0.526511
0.575772
0.394421
0.0522849
-0.300922
-0.500984
-0.456796
-0.188147
0.181162
0.481048
0.585696
0.456183
0.141131
-0.22541
-0.473906
-0.490251
-0.267131
0.0934553
0.424148
0.582027
0.507054
0.226875
-0.14295
-0.433222
-0.50968
-0.338022
0.00392438
0.357079
0.564836
0.545928
0.30727
-0.0558182
-0.379986
-0.514586
-0.398894
-0.0849922
0.281415
0.53446
0.572
0.380285
0.0335741
-0.315607
-0.504847
-0.448119
-0.170842
0.199015
0.491516
0.584745
0.444151
0.122769
-0.241814
-0.480709
-0.484405
-0.251248
0.111988
0.436908
0.583915
0.497396
0.209351
-0.160622
-0.442788
-0.506813
-0.323996
0.0226387
0.371841
0.569527
0.538851
0.291039
-0.0742688
-0.392067
-0.514773
-0.387103
-0.0666095
0.297827
0.541862
0.567646
0.365749
0.0148545
-0.329881
-0.508082
-0.438877
-0.153299
0.216666
0.501475
0.583202
0.431656
0.104292
-0.257895
-0.48691
-0.477952
-0.23503
0.130421
0.44921
0.585209
0.487222
0.191619
-0.178059
-0.451794
-0.50333
-0.309571
0.0413542
0.38625
0.573693
0.531223
0.274401
-0.0927404
-0.403653
-0.514074
-0.374478
-0.048105
0.313315
0.547823
0.562555
0.35224
-0.00146371
-0.342709
-0.513289
-0.434617
-0.139094
0.23859
0.524101
0.593883
0.415329
0.0565441
-0.315868
-0.512615
-0.433313
-0.121885
0.247026
0.465256
0.421593
0.161157
0.121021
0.0186209
0.107469
0.332136
0.552527
0.638025
0.533398
0.277557
-0.00591727
-0.169045
-0.1278
0.0931996
0.379403
0.595443
0.656031
0.543597
0.300771
0.0287996
-0.146026
-0.139746
0.0442066
0.316707
0.551277
0.651693
0.582434
0.367187
0.0916625
-0.117801
-0.159499
-0.0130375
0.250129
0.505175
0.643259
0.614217
0.427963
0.155866
-0.0805799
-0.167451
-0.0623429
0.183444
0.451937
0.624726
0.636675
0.483722
0.222274
-0.0345012
-0.164163
-0.103446
0.118011
0.393038
0.596866
0.649568
0.53306
0.28888
0.019043
-0.149683
-0.135096
0.0556857
0.32988
0.560188
0.652657
0.574894
0.3539
0.0785151
-0.12443
-0.156388
-0.00176117
0.264063
0.515434
0.645886
0.60835
0.415644
0.142215
-0.0891243
-0.166715
-0.0526826
0.19732
0.463557
0.629376
0.632766
0.472576
0.20834
-0.0447804
-0.165781
-0.0956139
0.131469
0.405731
0.603429
0.647682
0.523351
0.275053
0.00732614
-0.153613
-0.12932
0.0683463
0.343335
0.568537
0.652827
0.56683
0.340548
0.0656971
-0.130558
-0.152835
0.00974036
0.277933
0.525396
0.64811
0.602096
0.403108
0.128661
-0.0972758
-0.165485
-0.0426706
0.211236
0.474916
0.633613
0.628443
0.461163
0.194431
-0.054721
-0.166909
-0.0873795
0.145047
0.418224
0.609601
0.64537
0.513323
0.261173
-0.00411735
-0.157067
-0.1231
0.081204
0.356658
0.576525
0.652568
0.558408
0.327068
0.0530794
-0.13624
-0.148807
0.0215123
0.291747
0.535038
0.649907
0.595453
0.390375
0.115229
-0.105023
-0.163765
-0.0323223
0.225173
0.486004
0.637435
0.623709
0.449491
0.180565
-0.0643102
-0.167546
-0.0787527
0.158726
0.430505
0.615378
0.642634
0.502987
0.247256
-0.0152731
-0.160042
-0.116443
0.0942428
0.369836
0.584147
0.651878
0.549635
0.313474
0.0406779
-0.141469
-0.14431
0.0335398
0.305488
0.544351
0.651276
0.588426
0.377459
0.101937
-0.112355
-0.161557
-0.021651
0.239116
0.496809
0.64084
0.618568
0.437575
0.166758
-0.0735361
-0.167689
-0.0697444
0.172491
0.442559
0.620755
0.639475
0.492351
0.233318
-0.0261271
-0.162534
-0.109357
0.107447
0.382852
0.591395
0.650759
0.540519
0.299783
0.0285077
-0.146237
-0.13935
0.0458088
0.319141
0.553324
0.652214
0.581021
0.364378
0.0888065
-0.119262
-0.158874
-0.0106865
0.253045
0.50735
0.643865
0.613027
0.425349
0.15292
-0.0823888
-0.167149
-0.0601041
0.186334
0.453914
0.625052
0.635754
0.482466
0.221166
-0.0359181
-0.166584
-0.106122
0.118095
0.399126
0.608339
0.659129
0.528663
0.263432
-0.0169528
-0.167732
-0.107115
0.129726
0.406039
0.567201
0.534616
0.342996
0.396841
0.344835
0.390023
0.503145
0.613811
0.658081
0.607173
0.476256
0.325831
0.236896
0.259646
0.379324
0.529472
0.639108
0.669131
0.612938
0.488964
0.345361
0.250237
0.253692
0.353646
0.497205
0.616601
0.666537
0.632184
0.523217
0.37899
0.2657
0.242759
0.322766
0.462594
0.593456
0.662402
0.648012
0.554317
0.413078
0.286072
0.238372
0.296013
0.42763
0.566514
0.653226
0.659144
0.582622
0.448028
0.311143
0.240188
0.273572
0.393016
0.536478
0.639387
0.665518
0.607487
0.482769
0.340079
0.248174
0.256205
0.359761
0.504001
0.621085
0.667044
0.628435
0.516385
0.371975
0.262066
0.244478
0.328861
0.469861
0.598623
0.663699
0.645098
0.548034
0.405855
0.281405
0.238779
0.301269
0.434931
0.572411
0.65553
0.657209
0.576982
0.44072
0.305564
0.239294
0.277857
0.40016
0.542971
0.642652
0.664587
0.602607
0.475583
0.333765
0.246009
0.259379
0.366539
0.510943
0.625259
0.667128
0.624406
0.509506
0.365122
0.258699
0.246438
0.335067
0.477081
0.603635
0.664798
0.641989
0.54163
0.39867
0.276948
0.239458
0.30671
0.44224
0.578167
0.657628
0.655068
0.571197
0.433412
0.300161
0.238671
0.282359
0.407354
0.549351
0.64572
0.663444
0.59756
0.468355
0.327589
0.244104
0.262796
0.373411
0.517805
0.629249
0.666999
0.620194
0.502548
0.358365
0.255575
0.248657
0.341409
0.484258
0.60848
0.665686
0.638684
0.535114
0.391537
0.272708
0.240408
0.312325
0.449546
0.583776
0.65952
0.652722
0.565271
0.426113
0.294942
0.23832
0.287069
0.41459
0.555612
0.648589
0.662091
0.592351
0.461095
0.321558
0.242462
0.266449
0.380367
0.524579
0.633051
0.666659
0.615801
0.49552
0.351712
0.252699
0.251134
0.347878
0.491384
0.613152
0.666362
0.635184
0.528493
0.384466
0.268691
0.241627
0.318107
0.456841
0.589234
0.661204
0.650172
0.559212
0.418832
0.289914
0.23824
0.291981
0.421857
0.561748
0.651257
0.660529
0.586983
0.453809
0.315682
0.241087
0.270334
0.387399
0.531259
0.636663
0.666106
0.61123
0.488427
0.345173
0.250073
0.253865
0.354466
0.498451
0.617649
0.666825
0.631492
0.521775
0.377468
0.264903
0.243108
0.32404
0.464117
0.594552
0.662702
0.647422
0.552984
0.411519
0.285082
0.238531
0.297222
0.429146
0.567506
0.65336
0.65867
0.582004
0.447477
0.310411
0.238947
0.27225
0.39316
0.539758
0.645589
0.670894
0.605412
0.468876
0.319606
0.236762
0.269251
0.397107
0.543075
0.625827
0.608064
0.509898
0.554581
0.557823
0.55592
0.547811
0.538473
0.537298
0.545344
0.551289
0.547123
0.540442
0.542368
0.549885
0.551034
0.544299
0.540818
0.5463
0.551963
0.548675
0.541567
0.541874
0.549122
0.55185
0.545718
0.540394
0.544275
0.551229
0.550263
0.542911
0.540806
0.547275
0.552087
0.547626
0.540956
0.542628
0.549998
0.551404
0.54462
0.540383
0.545392
0.551727
0.54936
0.542039
0.541347
0.548377
0.552009
0.546493
0.54056
0.543594
0.550797
0.550771
0.543557
0.540571
0.546534
0.552016
0.548339
0.541324
0.542068
0.549395
0.551712
0.545352
0.54038
0.544659
0.551423
0.549966
0.542596
0.540973
0.547664
0.552085
0.547237
0.540795
0.542948
0.550292
0.551207
0.544244
0.540423
0.545785
0.551851
0.549019
0.541773
0.541576
0.54874
0.551931
0.546098
0.540473
0.543952
0.551034
0.550511
0.543212
0.540686
0.546928
0.552065
0.547965
0.541119
0.542356
0.54972
0.551561
0.544963
0.54037
0.545044
0.551594
0.549653
0.542294
0.54116
0.548044
0.552057
0.546846
0.54066
0.543282
0.550567
0.550987
0.543877
0.540489
0.54618
0.55195
0.548665
0.541527
0.541827
0.549091
0.551827
0.545703
0.540412
0.544321
0.55125
0.550232
0.54288
0.540827
0.547318
0.552088
0.547584
0.540938
0.542661
0.550029
0.551384
0.54458
0.540386
0.545433
0.551741
0.549325
0.542011
0.541369
0.548415
0.552003
0.546452
0.54055
0.54363
0.550823
0.550745
0.543521
0.540581
0.546575
0.552022
0.5483
0.541302
0.542097
0.549429
0.551698
0.545311
0.540378
0.544699
0.551442
0.549934
0.542564
0.540992
0.547704
0.552084
0.547197
0.54078
0.542982
0.550321
0.551185
0.544205
0.540428
0.545826
0.551863
0.548983
0.541746
0.541601
0.548777
0.551922
0.546057
0.540466
0.54399
0.551058
0.550483
0.543177
0.540699
0.546968
0.552069
0.547926
0.541099
0.542386
0.549753
0.551543
0.544923
0.54037
0.545084
0.551611
0.54962
0.542264
0.541181
0.548083
0.552053
0.546805
0.540647
0.543318
0.550595
0.550963
0.543839
0.540497
0.546221
0.551959
0.548628
0.541502
0.541854
0.549127
0.551815
0.545662
0.540407
0.54436
0.551271
0.550202
0.542846
0.540843
0.54736
0.552089
0.547544
0.540919
0.542693
0.550061
0.551363
0.544535
0.540378
0.545459
0.551749
0.549305
0.542004
0.541397
0.548458
0.552049
0.546524
0.540691
0.543845
0.550983
0.550678
0.543344
0.540643
0.546707
0.55137
0.546549
0.539302
0.540329
0.547298
0.549946
0.546655
0.54502
0.548864
0.539487
0.597888
0.549467
0.420152
0.289526
0.242295
0.31065
0.454539
0.595225
0.668777
0.650154
0.547296
0.39963
0.274768
0.236971
0.305603
0.442397
0.57862
0.657772
0.655025
0.571386
0.433984
0.300801
0.238899
0.281968
0.406573
0.548624
0.645377
0.663586
0.59812
0.469122
0.328219
0.244279
0.262425
0.372695
0.5171
0.628844
0.667021
0.620639
0.503275
0.359063
0.255889
0.248415
0.340743
0.483514
0.607984
0.665603
0.639037
0.535796
0.392276
0.273139
0.240297
0.311733
0.448787
0.5832
0.659333
0.652975
0.565894
0.426871
0.295476
0.238344
0.28657
0.413836
0.554967
0.6483
0.662242
0.5929
0.461851
0.322178
0.242621
0.266058
0.37964
0.523879
0.632665
0.666704
0.616266
0.496253
0.352398
0.252986
0.250865
0.3472
0.490646
0.612675
0.666301
0.635557
0.529186
0.385198
0.269098
0.241487
0.317498
0.456084
0.588674
0.661039
0.650446
0.559848
0.419587
0.290428
0.238236
0.291461
0.4211
0.561116
0.650989
0.660701
0.587548
0.454568
0.316286
0.241218
0.269919
0.386664
0.530569
0.636297
0.666174
0.611714
0.489167
0.345847
0.250334
0.253569
0.353775
0.497719
0.61719
0.666788
0.631886
0.522476
0.378189
0.265284
0.242946
0.323423
0.463362
0.593993
0.662536
0.647715
0.553673
0.412329
0.285578
0.2384
0.296549
0.428388
0.567134
0.653475
0.658952
0.582043
0.447268
0.310555
0.240083
0.274007
0.393756
0.537158
0.639736
0.665431
0.606987
0.482025
0.339417
0.247937
0.256523
0.360461
0.504726
0.621527
0.667062
0.628025
0.515674
0.371258
0.261705
0.24467
0.3295
0.470613
0.599152
0.663823
0.644784
0.547374
0.405106
0.280932
0.238837
0.301827
0.435691
0.573016
0.655758
0.656996
0.576387
0.43996
0.304994
0.239217
0.278315
0.400906
0.54364
0.64298
0.664478
0.60209
0.474833
0.333117
0.245798
0.259723
0.367249
0.51166
0.625683
0.667124
0.623977
0.508786
0.364415
0.258363
0.246656
0.33572
0.477829
0.604147
0.6649
0.641655
0.540958
0.397926
0.276497
0.239544
0.307285
0.443
0.578757
0.657835
0.654833
0.570586
0.432652
0.29961
0.238624
0.28284
0.408103
0.550004
0.646026
0.663319
0.597036
0.467603
0.326938
0.243895
0.263161
0.374171
0.518569
0.629649
0.666862
0.619594
0.501821
0.357958
0.255682
0.248996
0.34152
0.48411
0.608703
0.666988
0.64072
0.535859
0.388565
0.266183
0.234833
0.314166
0.461488
0.600187
0.667191
0.637586
0.525481
0.384782
0.294037
0.308221
0.414829
0.391121
0.50012
0.40956
0.170509
-0.0687472
-0.156326
-0.0330716
0.236295
0.508968
0.655219
0.617758
0.414143
0.130435
-0.10161
-0.170293
-0.044765
0.211547
0.475766
0.633861
0.628348
0.461525
0.19551
-0.0535265
-0.166474
-0.0880909
0.143567
0.416802
0.608916
0.645657
0.514433
0.262642
-0.00295266
-0.156752
-0.123775
0.0798643
0.355288
0.575714
0.652612
0.559297
0.328474
0.0543826
-0.135669
-0.149248
0.0202757
0.290313
0.534051
0.64974
0.596162
0.391708
0.116619
-0.104236
-0.163966
-0.0334134
0.223723
0.484864
0.637057
0.62422
0.450716
0.182004
-0.06333
-0.167502
-0.0796675
0.1573
0.429238
0.614796
0.642938
0.504075
0.248704
-0.0141271
-0.159755
-0.117155
0.0928793
0.368473
0.583372
0.65197
0.550563
0.314892
0.0419567
-0.140946
-0.144799
0.0322779
0.304063
0.543398
0.651154
0.589175
0.37881
0.103312
-0.111612
-0.161809
-0.022775
0.237666
0.4957
0.640505
0.619121
0.438825
0.16819
-0.0725943
-0.167697
-0.0706984
0.171057
0.441317
0.620215
0.639823
0.49347
0.234767
-0.0250131
-0.162297
-0.110113
0.106067
0.381507
0.590659
0.650895
0.541482
0.301211
0.029762
-0.145763
-0.139887
0.0445217
0.317725
0.552408
0.652139
0.58181
0.365742
0.0901577
-0.118566
-0.159166
-0.0118255
0.2516
0.506243
0.643532
0.613619
0.426698
0.15445
-0.0814847
-0.1674
-0.0613579
0.184884
0.453158
0.625229
0.636288
0.482576
0.220825
-0.0355851
-0.164354
-0.102651
0.119404
0.394367
0.597566
0.649392
0.532066
0.287446
0.0178126
-0.150114
-0.134516
0.0569923
0.331285
0.561073
0.652695
0.574073
0.352518
0.0771736
-0.125087
-0.156041
-0.000578457
0.265507
0.516484
0.646137
0.607718
0.41435
0.1408
-0.0899903
-0.16661
-0.0516578
0.198766
0.464751
0.629836
0.632336
0.471402
0.206893
-0.0458299
-0.165921
-0.0947764
0.132876
0.407039
0.604089
0.647462
0.522323
0.273613
0.00612346
-0.153994
-0.128694
0.0696741
0.344727
0.569384
0.65282
0.565971
0.339152
0.0643757
-0.13117
-0.152438
0.0109519
0.279372
0.526414
0.648316
0.601423
0.401793
0.127258
-0.0981002
-0.165329
-0.0416103
0.212684
0.476082
0.63403
0.62797
0.45996
0.192987
-0.0557335
-0.166995
-0.0864991
0.146461
0.419504
0.610218
0.645115
0.51228
0.25973
-0.00532189
-0.157445
-0.122431
0.0826305
0.358144
0.577336
0.652319
0.557242
0.325659
0.052292
-0.136075
-0.148235
0.0216557
0.29141
0.535372
0.652188
0.599055
0.391677
0.109932
-0.116606
-0.173562
-0.02821
0.248819
0.518519
0.653117
0.595813
0.375082
0.102866
-0.0685237
-0.0411638
0.158084
0.219581
0.365381
0.244735
-0.0715511
-0.384668
-0.498521
-0.33751
0.0200928
0.388576
0.588486
0.536944
0.259011
-0.122523
-0.428595
-0.517974
-0.354168
-0.0142502
0.343108
0.559919
0.552346
0.323686
-0.0358356
-0.365864
-0.513206
-0.411119
-0.105223
0.262775
0.525569
0.576166
0.395937
0.0542602
-0.299388
-0.500573
-0.457675
-0.189924
0.179306
0.479934
0.585757
0.457403
0.143032
-0.223686
-0.473164
-0.490824
-0.268763
0.0915232
0.422795
0.581797
0.508028
0.228683
-0.141101
-0.432195
-0.509941
-0.339455
0.00197993
0.355523
0.564315
0.546632
0.308939
-0.0538939
-0.378702
-0.51453
-0.40009
-0.086896
0.279692
0.533659
0.572419
0.381773
0.0355201
-0.314099
-0.504475
-0.449047
-0.172652
0.197168
0.490451
0.584871
0.445424
0.124683
-0.240123
-0.48003
-0.485041
-0.252915
0.110066
0.435602
0.583747
0.498424
0.211184
-0.158795
-0.44182
-0.507141
-0.325474
0.0206925
0.370324
0.569066
0.539612
0.292741
-0.0723559
-0.390834
-0.514784
-0.388352
-0.0685262
0.296135
0.541118
0.568126
0.367278
0.0168004
-0.328416
-0.507775
-0.439864
-0.155133
0.214841
0.500464
0.58339
0.432976
0.106218
-0.256239
-0.486293
-0.478651
-0.236732
0.128509
0.447954
0.585105
0.488305
0.193468
-0.176266
-0.450886
-0.50371
-0.31107
0.0394118
0.384737
0.573239
0.53204
0.276236
-0.0906993
-0.402467
-0.514397
-0.376118
-0.0500424
0.312267
0.548022
0.563255
0.352397
-0.00190801
-0.342308
-0.510444
-0.430125
-0.137396
0.232293
0.509959
0.581317
0.420076
0.0876578
-0.272013
-0.49195
-0.471663
-0.220231
0.146831
0.459838
0.585872
0.477681
0.175556
-0.193492
-0.459385
-0.499651
-0.296261
0.0581152
0.398746
0.576829
0.523921
0.259442
-0.108902
-0.413588
-0.513372
-0.363402
-0.031467
0.328072
0.554366
0.55781
0.337146
-0.0205827
-0.355757
-0.512479
-0.419842
-0.119461
0.249506
0.518928
0.578655
0.406737
0.0690247
-0.287429
-0.496992
-0.464083
-0.203434
0.165011
0.471244
0.586045
0.46656
0.157469
-0.210454
-0.467306
-0.49497
-0.281063
0.0767808
0.412337
0.579834
0.515263
0.242378
-0.126942
-0.424184
-0.51171
-0.350219
-0.0128223
0.343533
0.560144
0.551796
0.321539
-0.0392024
-0.368746
-0.513873
-0.409025
-0.101355
0.26645
0.52736
0.57542
0.392994
0.0503451
-0.302506
-0.501471
-0.455921
-0.186252
0.183173
0.482163
0.585366
0.454594
0.139211
-0.226499
-0.473747
-0.489565
-0.266994
0.0929855
0.424581
0.585037
0.511835
0.228771
-0.149364
-0.447426
-0.521399
-0.331518
0.0363519
0.401105
0.585614
0.507741
0.206897
-0.160653
-0.389511
-0.354012
-0.0906674
0.144994
0.304277
0.172777
-0.170973
-0.509498
-0.632042
-0.457983
-0.0690992
0.334491
0.554445
0.497595
0.192002
-0.224968
-0.556785
-0.653141
-0.476371
-0.107023
0.284435
0.52325
0.5149
0.263079
-0.130639
-0.489149
-0.648148
-0.538058
-0.206263
0.196167
0.485348
0.54117
0.342532
-0.0322534
-0.41718
-0.634535
-0.588298
-0.298399
0.104612
0.435036
0.551759
0.41021
0.0648717
-0.335072
-0.605
-0.624033
-0.383984
0.00849364
0.372096
0.547387
0.466004
0.158755
-0.245312
-0.560807
-0.644625
-0.460569
-0.0893649
0.298073
0.528092
0.508581
0.246868
-0.150326
-0.503022
-0.649566
-0.526137
-0.186296
0.214742
0.494271
0.537036
0.326948
-0.052733
-0.433116
-0.638738
-0.578992
-0.279627
0.124192
0.446628
0.550781
0.397015
0.0447816
-0.352915
-0.612401
-0.617801
-0.366795
0.0287822
0.386198
0.549539
0.455417
0.13956
-0.264559
-0.571193
-0.641609
-0.445434
-0.0689308
0.314353
0.533336
0.500837
0.229073
-0.170452
-0.516135
-0.649838
-0.513453
-0.166278
0.232801
0.502498
0.532298
0.311002
-0.0731817
-0.44862
-0.642292
-0.569083
-0.260577
0.143571
0.457665
0.549145
0.383307
0.0245713
-0.3704
-0.619151
-0.610915
-0.349234
0.0489696
0.399802
0.551039
0.444263
0.120135
-0.283555
-0.580976
-0.637914
-0.429836
-0.0484808
0.330209
0.537941
0.492484
0.210946
-0.190439
-0.528705
-0.649423
-0.500228
-0.146127
0.250525
0.510114
0.526922
0.294637
-0.0936094
-0.463656
-0.645166
-0.558572
-0.24128
0.162715
0.468134
0.546857
0.369103
0.00426521
-0.387508
-0.625246
-0.603382
-0.331321
0.0690325
0.412893
0.551885
0.432553
0.100503
-0.302277
-0.590143
-0.633542
-0.413791
-0.0280395
0.345624
0.541903
0.483529
0.192509
-0.210264
-0.540717
-0.648319
-0.486477
-0.125867
0.267894
0.517114
0.520914
0.277868
-0.113992
-0.478208
-0.647357
-0.547471
-0.221761
0.181603
0.478024
0.543919
0.354418
-0.0161124
-0.40422
-0.630678
-0.595209
-0.313078
0.0889473
0.42546
0.552076
0.420299
0.0806852
-0.320703
-0.598685
-0.6285
-0.39732
-0.00763119
0.360582
0.54522
0.473982
0.173781
-0.229904
-0.552158
-0.646529
-0.472217
-0.105523
0.28489
0.52349
0.514278
0.260714
-0.134305
-0.492257
-0.648858
-0.535789
-0.202046
0.200202
0.487322
0.540349
0.339294
-0.036532
-0.420557
-0.635501
-0.586405
-0.294409
0.10885
0.437492
0.55133
0.407118
0.0606785
-0.338149
-0.605654
-0.622703
-0.382087
0.0100908
0.374064
0.550934
0.470172
0.158953
-0.253976
-0.576782
-0.65646
-0.451451
-0.0515097
0.348037
0.551169
0.465554
0.134878
-0.267456
-0.516851
-0.478758
-0.192999
0.219581
0.365381
0.244735
-0.0715511
-0.384668
-0.498521
-0.33751
0.0200928
0.388576
0.588486
0.536944
0.259011
-0.122523
-0.428595
-0.517974
-0.354168
-0.0142502
0.343108
0.559919
0.552346
0.323686
-0.0358356
-0.365864
-0.513206
-0.411119
-0.105223
0.262775
0.525569
0.576166
0.395937
0.0542602
-0.299388
-0.500573
-0.457675
-0.189924
0.179306
0.479934
0.585757
0.457403
0.143032
-0.223686
-0.473164
-0.490824
-0.268763
0.0915232
0.422795
0.581797
0.508028
0.228683
-0.141101
-0.432195
-0.509941
-0.339455
0.00197993
0.355523
0.564315
0.546632
0.308939
-0.0538939
-0.378702
-0.51453
-0.40009
-0.086896
0.279692
0.533659
0.572419
0.381773
0.0355201
-0.314099
-0.504475
-0.449047
-0.172652
0.197168
0.490451
0.584871
0.445424
0.124683
-0.240123
-0.48003
-0.485041
-0.252915
0.110066
0.435602
0.583747
0.498424
0.211184
-0.158795
-0.44182
-0.507141
-0.325474
0.0206925
0.370324
0.569066
0.539612
0.292741
-0.0723559
-0.390834
-0.514784
-0.388352
-0.0685262
0.296135
0.541118
0.568126
0.367278
0.0168004
-0.328416
-0.507775
-0.439864
-0.155133
0.214841
0.500464
0.58339
0.432976
0.106218
-0.256239
-0.486293
-0.478651
-0.236732
0.128509
0.447954
0.585105
0.488305
0.193468
-0.176266
-0.450886
-0.50371
-0.31107
0.0394118
0.384737
0.573239
0.53204
0.276236
-0.0906993
-0.402467
-0.514397
-0.376118
-0.0500424
0.312267
0.548022
0.563255
0.352397
-0.00190801
-0.342308
-0.510444
-0.430125
-0.137396
0.232293
0.509959
0.581317
0.420076
0.0876578
-0.272013
-0.49195
-0.471663
-0.220231
0.146831
0.459838
0.585872
0.477681
0.175556
-0.193492
-0.459385
-0.499651
-0.296261
0.0581152
0.398746
0.576829
0.523921
0.259442
-0.108902
-0.413588
-0.513372
-0.363402
-0.031467
0.328072
0.554366
0.55781
0.337146
-0.0205827
-0.355757
-0.512479
-0.419842
-0.119461
0.249506
0.518928
0.578655
0.406737
0.0690247
-0.287429
-0.496992
-0.464083
-0.203434
0.165011
0.471244
0.586045
0.46656
0.157469
-0.210454
-0.467306
-0.49497
-0.281063
0.0767808
0.412337
0.579834
0.515263
0.242378
-0.126942
-0.424184
-0.51171
-0.350219
-0.0128223
0.343533
0.560144
0.551796
0.321539
-0.0392024
-0.368746
-0.513873
-0.409025
-0.101355
0.26645
0.52736
0.57542
0.392994
0.0503451
-0.302506
-0.501471
-0.455921
-0.186252
0.183173
0.482163
0.585366
0.454594
0.139211
-0.226499
-0.473747
-0.489565
-0.266994
0.0929855
0.424581
0.585037
0.511835
0.228771
-0.149364
-0.447426
-0.521399
-0.331518
0.0363519
0.401105
0.585614
0.507741
0.206897
-0.160653
-0.389511
-0.354012
-0.0906674
0.391121
0.50012
0.40956
0.170509
-0.0687472
-0.156326
-0.0330716
0.236295
0.508968
0.655219
0.617758
0.414143
0.130435
-0.10161
-0.170293
-0.044765
0.211547
0.475766
0.633861
0.628348
0.461525
0.19551
-0.0535265
-0.166474
-0.0880909
0.143567
0.416802
0.608916
0.645657
0.514433
0.262642
-0.00295266
-0.156752
-0.123775
0.0798643
0.355288
0.575714
0.652612
0.559297
0.328474
0.0543826
-0.135669
-0.149248
0.0202757
0.290313
0.534051
0.64974
0.596162
0.391708
0.116619
-0.104236
-0.163966
-0.0334134
0.223723
0.484864
0.637057
0.62422
0.450716
0.182004
-0.06333
-0.167502
-0.0796675
0.1573
0.429238
0.614796
0.642938
0.504075
0.248704
-0.0141271
-0.159755
-0.117155
0.0928793
0.368473
0.583372
0.65197
0.550563
0.314892
0.0419567
-0.140946
-0.144799
0.0322779
0.304063
0.543398
0.651154
0.589175
0.37881
0.103312
-0.111612
-0.161809
-0.022775
0.237666
0.4957
0.640505
0.619121
0.438825
0.16819
-0.0725943
-0.167697
-0.0706984
0.171057
0.441317
0.620215
0.639823
0.49347
0.234767
-0.0250131
-0.162297
-0.110113
0.106067
0.381507
0.590659
0.650895
0.541482
0.301211
0.029762
-0.145763
-0.139887
0.0445217
0.317725
0.552408
0.652139
0.58181
0.365742
0.0901577
-0.118566
-0.159166
-0.0118255
0.2516
0.506243
0.643532
0.613619
0.426698
0.15445
-0.0814847
-0.1674
-0.0613579
0.184884
0.453158
0.625229
0.636288
0.482576
0.220825
-0.0355851
-0.164354
-0.102651
0.119404
0.394367
0.597566
0.649392
0.532066
0.287446
0.0178126
-0.150114
-0.134516
0.0569923
0.331285
0.561073
0.652695
0.574073
0.352518
0.0771736
-0.125087
-0.156041
-0.000578457
0.265507
0.516484
0.646137
0.607718
0.41435
0.1408
-0.0899903
-0.16661
-0.0516578
0.198766
0.464751
0.629836
0.632336
0.471402
0.206893
-0.0458299
-0.165921
-0.0947764
0.132876
0.407039
0.604089
0.647462
0.522323
0.273613
0.00612346
-0.153994
-0.128694
0.0696741
0.344727
0.569384
0.65282
0.565971
0.339152
0.0643757
-0.13117
-0.152438
0.0109519
0.279372
0.526414
0.648316
0.601423
0.401793
0.127258
-0.0981002
-0.165329
-0.0416103
0.212684
0.476082
0.63403
0.62797
0.45996
0.192987
-0.0557335
-0.166995
-0.0864991
0.146461
0.419504
0.610218
0.645115
0.51228
0.25973
-0.00532189
-0.157445
-0.122431
0.0826305
0.358144
0.577336
0.652319
0.557242
0.325659
0.052292
-0.136075
-0.148235
0.0216557
0.29141
0.535372
0.652188
0.599055
0.391677
0.109932
-0.116606
-0.173562
-0.02821
0.248819
0.518519
0.653117
0.595813
0.375082
0.102866
-0.0685237
-0.0411638
0.158084
0.539487
0.597888
0.549467
0.420152
0.289526
0.242295
0.31065
0.454539
0.595225
0.668777
0.650154
0.547296
0.39963
0.274768
0.236971
0.305603
0.442397
0.57862
0.657772
0.655025
0.571386
0.433984
0.300801
0.238899
0.281968
0.406573
0.548624
0.645377
0.663586
0.59812
0.469122
0.328219
0.244279
0.262425
0.372695
0.5171
0.628844
0.667021
0.620639
0.503275
0.359063
0.255889
0.248415
0.340743
0.483514
0.607984
0.665603
0.639037
0.535796
0.392276
0.273139
0.240297
0.311733
0.448787
0.5832
0.659333
0.652975
0.565894
0.426871
0.295476
0.238344
0.28657
0.413836
0.554967
0.6483
0.662242
0.5929
0.461851
0.322178
0.242621
0.266058
0.37964
0.523879
0.632665
0.666704
0.616266
0.496253
0.352398
0.252986
0.250865
0.3472
0.490646
0.612675
0.666301
0.635557
0.529186
0.385198
0.269098
0.241487
0.317498
0.456084
0.588674
0.661039
0.650446
0.559848
0.419587
0.290428
0.238236
0.291461
0.4211
0.561116
0.650989
0.660701
0.587548
0.454568
0.316286
0.241218
0.269919
0.386664
0.530569
0.636297
0.666174
0.611714
0.489167
0.345847
0.250334
0.253569
0.353775
0.497719
0.61719
0.666788
0.631886
0.522476
0.378189
0.265284
0.242946
0.323423
0.463362
0.593993
0.662536
0.647715
0.553673
0.412329
0.285578
0.2384
0.296549
0.428388
0.567134
0.653475
0.658952
0.582043
0.447268
0.310555
0.240083
0.274007
0.393756
0.537158
0.639736
0.665431
0.606987
0.482025
0.339417
0.247937
0.256523
0.360461
0.504726
0.621527
0.667062
0.628025
0.515674
0.371258
0.261705
0.24467
0.3295
0.470613
0.599152
0.663823
0.644784
0.547374
0.405106
0.280932
0.238837
0.301827
0.435691
0.573016
0.655758
0.656996
0.576387
0.43996
0.304994
0.239217
0.278315
0.400906
0.54364
0.64298
0.664478
0.60209
0.474833
0.333117
0.245798
0.259723
0.367249
0.51166
0.625683
0.667124
0.623977
0.508786
0.364415
0.258363
0.246656
0.33572
0.477829
0.604147
0.6649
0.641655
0.540958
0.397926
0.276497
0.239544
0.307285
0.443
0.578757
0.657835
0.654833
0.570586
0.432652
0.29961
0.238624
0.28284
0.408103
0.550004
0.646026
0.663319
0.597036
0.467603
0.326938
0.243895
0.263161
0.374171
0.518569
0.629649
0.666862
0.619594
0.501821
0.357958
0.255682
0.248996
0.34152
0.48411
0.608703
0.666988
0.64072
0.535859
0.388565
0.266183
0.234833
0.314166
0.461488
0.600187
0.667191
0.637586
0.525481
0.384782
0.294037
0.308221
0.414829
0.554581
0.557823
0.55592
0.547811
0.538473
0.537298
0.545344
0.551289
0.547123
0.540442
0.542368
0.549885
0.551034
0.544299
0.540818
0.5463
0.551963
0.548675
0.541567
0.541874
0.549122
0.55185
0.545718
0.540394
0.544275
0.551229
0.550263
0.542911
0.540806
0.547275
0.552087
0.547626
0.540956
0.542628
0.549998
0.551404
0.54462
0.540383
0.545392
0.551727
0.54936
0.542039
0.541347
0.548377
0.552009
0.546493
0.54056
0.543594
0.550797
0.550771
0.543557
0.540571
0.546534
0.552016
0.548339
0.541324
0.542068
0.549395
0.551712
0.545352
0.54038
0.544659
0.551423
0.549966
0.542596
0.540973
0.547664
0.552085
0.547237
0.540795
0.542948
0.550292
0.551207
0.544244
0.540423
0.545785
0.551851
0.549019
0.541773
0.541576
0.54874
0.551931
0.546098
0.540473
0.543952
0.551034
0.550511
0.543212
0.540686
0.546928
0.552065
0.547965
0.541119
0.542356
0.54972
0.551561
0.544963
0.54037
0.545044
0.551594
0.549653
0.542294
0.54116
0.548044
0.552057
0.546846
0.54066
0.543282
0.550567
0.550987
0.543877
0.540489
0.54618
0.55195
0.548665
0.541527
0.541827
0.549091
0.551827
0.545703
0.540412
0.544321
0.55125
0.550232
0.54288
0.540827
0.547318
0.552088
0.547584
0.540938
0.542661
0.550029
0.551384
0.54458
0.540386
0.545433
0.551741
0.549325
0.542011
0.541369
0.548415
0.552003
0.546452
0.54055
0.54363
0.550823
0.550745
0.543521
0.540581
0.546575
0.552022
0.5483