# vtk DataFile Version 3.0
PFC-RG simulation results
ASCII
DATASET STRUCTURED_POINTS
DIMENSIONS 64 64 1
ORIGIN 0 0 0
SPACING 1 1 1
POINT_DATA 4096
SCALARS psi double
LOOKUP_TABLE default
0.486107
0.218872
-0.108374
0.0770913
0.537679
0.567121
0.111083
-0.159259
0.09293
0.426683
0.438752
0.289601
0.21628
0.167557
0.133674
0.267371
0.505566
0.542575
0.275318
-0.0435051
-0.151198
-0.0443276
0.135336
0.257527
0.225855
0.0499429
-0.0878145
-0.00981582
0.199829
0.283495
0.166532
0.0227232
-0.029951
-0.0434991
-0.0278517
0.0638328
0.135825
0.0490068
-0.0957881
-0.0570312
0.175206
0.332038
0.246816
0.0797594
0.0714578
0.242773
0.400449
0.356923
0.177642
0.173272
0.430786
0.576433
0.325786
0.0276374
0.169307
0.518801
0.474568
0.0675312
-0.0808693
0.212685
0.419229
0.239732
0.0813518
0.296996
0.227846
0.145072
0.156347
0.321718
0.495579
0.446461
0.187232
0.0426876
0.214975
0.456631
0.44085
0.228914
0.112694
0.187669
0.327409
0.408954
0.376458
0.21223
-0.0369684
-0.251101
-0.322652
-0.239736
-0.0601962
0.123785
0.199523
0.122289
0.00309946
0.0157711
0.172907
0.273169
0.145186
-0.127202
-0.316337
-0.318898
-0.189553
-0.00714884
0.16878
0.282434
0.319137
0.346464
0.415275
0.413977
0.216011
-0.0213254
0.0167628
0.332532
0.544478
0.381171
0.0748287
0.0842385
0.409341
0.56488
0.30958
0.0238114
0.136751
0.439997
0.462806
0.225025
0.139211
0.317049
0.430636
0.320609
0.236995
0.343675
0.0655004
0.205676
0.431489
0.39569
0.220249
0.211121
0.344694
0.425458
0.452031
0.484507
0.445961
0.321609
0.287697
0.416717
0.487816
0.295574
-0.0115096
-0.122298
0.00643757
0.150701
0.153751
0.0449074
-0.0803248
-0.154308
-0.145626
-0.0862869
-0.0805029
-0.164782
-0.214008
-0.137716
-0.0586303
-0.101171
-0.151099
-0.0627145
0.0708257
0.096646
0.0894627
0.199478
0.341096
0.350649
0.290865
0.277275
0.245629
0.168827
0.199545
0.378437
0.487349
0.352994
0.134319
0.124875
0.307212
0.416076
0.352715
0.274477
0.318586
0.398464
0.419456
0.420505
0.444345
0.461887
0.438572
0.407447
0.398446
0.361219
0.0544135
0.346428
0.594604
0.324431
-0.0639574
0.034146
0.44189
0.579677
0.408114
0.309967
0.37394
0.415357
0.435962
0.519259
0.495203
0.190329
-0.12778
-0.0478514
0.338787
0.584685
0.529793
0.347521
0.14006
-0.0987044
-0.226316
-0.0971251
0.0685768
-0.0524631
-0.309918
-0.282595
0.018464
0.218615
0.251216
0.342737
0.434275
0.269318
-0.0230513
-0.0687708
0.0925791
0.130553
0.0563065
0.131689
0.33745
0.444951
0.412953
0.364344
0.362886
0.373681
0.376844
0.380248
0.348841
0.326275
0.412714
0.53034
0.490672
0.304451
0.245722
0.404139
0.510008
0.394184
0.257292
0.317361
0.452337
0.413822
0.109231
0.43636
0.632684
0.296657
-0.0666169
0.11292
0.506522
0.481815
0.154444
0.0912766
0.324994
0.436723
0.352705
0.333211
0.374127
0.269982
0.146247
0.278146
0.486782
0.400206
0.157845
0.160432
0.315583
0.226844
0.00283699
0.100055
0.401087
0.353812
0.00673179
-0.0305818
0.310258
0.464859
0.292749
0.244305
0.398182
0.334262
0.0318545
-0.0600553
0.124183
0.215061
0.139978
0.186045
0.407297
0.548564
0.48629
0.347575
0.305331
0.398648
0.540717
0.589386
0.451739
0.303454
0.388543
0.568376
0.509097
0.240932
0.158733
0.356965
0.46651
0.282522
0.0893042
0.19253
0.443071
0.487563
0.149868
0.412795
0.565086
0.340655
0.157289
0.351678
0.554575
0.34447
0.0218451
0.111614
0.446472
0.46301
0.170102
0.0770293
0.29135
0.445012
0.436667
0.457326
0.381154
-0.0184081
-0.372144
-0.143472
0.382366
0.444798
0.0878582
0.0678208
0.454359
0.541565
0.216838
0.141464
0.427828
0.418822
-0.0123935
-0.186404
0.122819
0.355272
0.259883
0.227378
0.421472
0.531851
0.423224
0.329812
0.387647
0.461586
0.445957
0.380854
0.338786
0.35637
0.45169
0.543801
0.471102
0.318759
0.337337
0.479409
0.481754
0.340827
0.318444
0.458241
0.510077
0.353308
0.192224
0.257257
0.460667
0.507838
0.22186
0.376169
0.459853
0.351073
0.323246
0.486636
0.533502
0.2908
0.111806
0.325421
0.619454
0.480352
0.0715898
0.0202775
0.357564
0.518728
0.372411
0.299752
0.300959
0.0510546
-0.225182
-0.000801519
0.484623
0.448733
-0.0675072
-0.193679
0.221294
0.392546
0.103015
0.0283586
0.332935
0.345465
-0.0852297
-0.251582
0.118414
0.454438
0.417804
0.355487
0.500712
0.610074
0.513999
0.374785
0.341261
0.36773
0.406751
0.451487
0.439134
0.345268
0.313937
0.416988
0.469486
0.396544
0.364141
0.438154
0.495558
0.482536
0.478083
0.506579
0.510577
0.468674
0.425955
0.439877
0.488852
0.449793
0.363517
0.424034
0.403182
0.309527
0.328327
0.45751
0.475566
0.329443
0.277758
0.468529
0.616565
0.397565
0.0720536
0.163573
0.49641
0.422471
0.00773218
-0.0413796
0.331787
0.484121
0.301917
0.307141
0.530496
0.393234
-0.101614
-0.213747
0.171823
0.312434
0.00407908
-0.0775323
0.283792
0.462441
0.232715
0.141368
0.409173
0.568349
0.372558
0.194262
0.286805
0.417392
0.402502
0.364185
0.38931
0.404186
0.418149
0.499683
0.548228
0.447205
0.348801
0.424299
0.523981
0.49282
0.426265
0.443754
0.493571
0.485658
0.422162
0.35912
0.353664
0.424054
0.508708
0.532368
0.481613
0.37667
0.472931
0.482987
0.396707
0.293537
0.311989
0.423288
0.478085
0.428397
0.392226
0.447603
0.45919
0.288493
0.157323
0.362704
0.601813
0.322806
-0.213718
-0.184546
0.390367
0.655028
0.369034
0.175027
0.344634
0.384418
0.135191
0.115946
0.429769
0.488842
0.151941
0.0314566
0.353345
0.584163
0.475412
0.420508
0.573973
0.567847
0.276427
0.0866543
0.19632
0.338609
0.359174
0.412143
0.521462
0.51896
0.439547
0.481083
0.581464
0.546447
0.45521
0.490429
0.556122
0.514107
0.442324
0.448528
0.473507
0.432354
0.34811
0.283418
0.274862
0.345091
0.457869
0.520653
0.47374
0.368412
0.449167
0.452336
0.39369
0.346534
0.386268
0.473059
0.531342
0.516383
0.450622
0.407036
0.388254
0.334939
0.323435
0.478997
0.598596
0.355117
-0.0114934
0.0758568
0.477387
0.46066
-0.0230986
-0.215523
0.141443
0.436839
0.356596
0.334554
0.565111
0.613828
0.334409
0.198213
0.39551
0.506174
0.35165
0.288733
0.442233
0.476917
0.30102
0.24619
0.410724
0.500038
0.43675
0.469973
0.602954
0.581324
0.431368
0.425609
0.536082
0.541568
0.474713
0.491291
0.521743
0.476565
0.445704
0.486998
0.501564
0.457239
0.441687
0.462254
0.436623
0.396239
0.427405
0.49462
0.48391
0.413534
0.377536
0.404659
0.416942
0.443281
0.483372
0.49611
0.502595
0.504951
0.469613
0.439254
0.468107
0.49131
0.439183
0.389998
0.402148
0.383998
0.351562
0.454302
0.541304
0.265844
-0.183592
-0.184916
0.280532
0.532829
0.319854
0.157683
0.334078
0.46757
0.334931
0.257435
0.380534
0.378974
0.162502
0.09767
0.299492
0.437618
0.402212
0.457466
0.634151
0.636217
0.462478
0.443218
0.573711
0.556075
0.40686
0.399094
0.50004
0.501599
0.447721
0.473032
0.499397
0.468013
0.484165
0.556812
0.549525
0.490361
0.533865
0.630114
0.58887
0.461153
0.431395
0.482787
0.473278
0.43625
0.413277
0.459054
0.498333
0.529431
0.504031
0.409894
0.367017
0.421651
0.470165
0.480658
0.525895
0.558237
0.429147
0.202278
0.146617
0.316192
0.485772
0.511558
0.41428
0.232525
0.123756
0.298916
0.592428
0.550187
0.158077
-0.062738
0.110323
0.303052
0.280687
0.286592
0.431221
0.440114
0.254398
0.204555
0.388619
0.505117
0.449659
0.469643
0.594057
0.549914
0.367283
0.370626
0.523697
0.531261
0.42222
0.439207
0.529476
0.511396
0.459988
0.500672
0.531522
0.495979
0.511428
0.575946
0.535093
0.43251
0.453472
0.545355
0.50601
0.413712
0.450347
0.513013
0.450881
0.408836
0.510345
0.527847
0.533088
0.535054
0.466045
0.330944
0.294026
0.404884
0.484974
0.448584
0.436664
0.493619
0.432857
0.22178
0.153672
0.327576
0.419354
0.254937
0.118397
0.238132
0.463262
0.580536
0.534998
0.342057
0.124212
0.102558
0.28261
0.393056
0.34199
0.357902
0.511734
0.565314
0.456075
0.429165
0.550705
0.574082
0.427002
0.353232
0.412936
0.389857
0.303699
0.380663
0.542556
0.551836
0.472026
0.503318
0.573342
0.532659
0.479455
0.527365
0.554159
0.494475
0.474019
0.514958
0.473701
0.369249
0.358518
0.40108
0.357671
0.350728
0.507712
0.593071
0.443342
0.342203
0.518817
0.46884
0.427325
0.453135
0.456646
0.390639
0.38746
0.487971
0.49812
0.346041
0.270471
0.408104
0.519289
0.430753
0.374215
0.471565
0.415649
0.0961154
-0.041173
0.247444
0.514894
0.364194
0.0651065
0.0399627
0.26811
0.49001
0.576906
0.525008
0.412573
0.377849
0.44249
0.47576
0.437382
0.44667
0.525979
0.52077
0.395626
0.328483
0.378229
0.410528
0.420289
0.50138
0.570628
0.516324
0.449112
0.493967
0.542203
0.486758
0.441773
0.493436
0.516111
0.452046
0.420912
0.459041
0.460994
0.433878
0.462691
0.468367
0.371152
0.362064
0.558586
0.647827
0.438092
0.276437
0.469285
0.371073
0.313073
0.406066
0.521774
0.52114
0.501628
0.539999
0.484248
0.281086
0.199205
0.385455
0.541595
0.444012
0.364968
0.494001
0.507843
0.22879
0.0866198
0.324887
0.443646
0.0926435
-0.223322
0.00615699
0.462023
0.598852
0.453834
0.36266
0.375966
0.349342
0.278774
0.263759
0.313384
0.360762
0.383877
0.396199
0.409115
0.44317
0.49595
0.54012
0.572459
0.573723
0.494069
0.376067
0.353453
0.431316
0.46336
0.41162
0.396024
0.449844
0.467241
0.434478
0.441539
0.484917
0.498137
0.527781
0.616732
0.619576
0.459444
0.374687
0.525093
0.614602
0.433916
0.292659
0.485258
0.392705
0.344475
0.457228
0.571035
0.511877
0.420765
0.453572
0.469998
0.347925
0.294624
0.430729
0.448797
0.180816
0.0386353
0.298938
0.537634
0.395975
0.24044
0.395205
0.469293
0.175032
-0.000229318
0.299858
0.564749
0.317864
-0.0325052
0.0639991
0.382865
0.418776
0.23934
0.232786
0.400392
0.440116
0.331392
0.327024
0.466396
0.546596
0.502469
0.475182
0.513364
0.493343
0.372459
0.295198
0.362085
0.455221
0.446442
0.405516
0.43318
0.475321
0.457329
0.4483
0.507293
0.538104
0.471793
0.431698
0.517574
0.566112
0.442266
0.341889
0.442547
0.528067
0.43049
0.392952
0.537135
0.478037
0.442418
0.509715
0.517647
0.335561
0.200461
0.32981
0.50675
0.475537
0.408771
0.480826
0.416477
0.0594463
-0.12274
0.188375
0.496689
0.350919
0.151226
0.32977
0.531977
0.400811
0.308357
0.519911
0.532675
0.0504136
-0.282962
0.0597645
0.551384
0.522427
0.247071
0.324109
0.606588
0.56847
0.295028
0.282047
0.510632
0.539533
0.318996
0.215547
0.330973
0.410135
0.368066
0.390032
0.517665
0.55637
0.46098
0.423707
0.499891
0.523237
0.437521
0.40781
0.501035
0.535651
0.389545
0.230938
0.265089
0.384286
0.393188
0.372453
0.446316
0.472784
0.386376
0.432592
0.520799
0.489975
0.46962
0.500722
0.442954
0.223971
0.125484
0.346958
0.562945
0.456752
0.305187
0.422523
0.515856
0.290279
0.125202
0.348887
0.503602
0.19816
-0.0639928
0.19474
0.510803
0.386992
0.203979
0.35944
0.442146
0.139539
-0.0100568
0.36264
0.665856
0.392471
0.0612063
0.270781
0.614989
0.463521
0.112038
0.199188
0.536145
0.50983
0.187871
0.113352
0.340019
0.475196
0.435764
0.471531
0.585584
0.540733
0.370581
0.347079
0.476412
0.505838
0.377728
0.312665
0.418693
0.508753
0.414032
0.256166
0.256417
0.378405
0.452189
0.496653
0.556816
0.489315
0.301898
0.318315
0.465229
0.45063
0.450362
0.486749
0.454485
0.307657
0.274463
0.472151
0.535644
0.226421
-0.00329542
0.249219
0.571333
0.487606
0.323321
0.467717
0.529248
0.15358
-0.12032
0.176205
0.480389
0.2196
-0.124945
0.0508935
0.40525
0.440187
0.399639
0.541567
0.483145
0.0454948
-0.16984
0.185288
0.489575
0.232718
-0.0609798
0.193191
0.585429
0.504805
0.217807
0.281421
0.550523
0.558745
0.365869
0.340106
0.44382
0.390361
0.235218
0.249837
0.408973
0.461484
0.358719
0.293408
0.378481
0.498375
0.520942
0.484005
0.494518
0.518957
0.487556
0.500207
0.59357
0.541038
0.281351
0.180334
0.452229
0.439008
0.451756
0.50393
0.517036
0.442687
0.426739
0.527991
0.443853
0.0558795
-0.138017
0.188867
0.506229
0.319584
0.0706395
0.262319
0.480756
0.250355
0.0204507
0.277916
0.536097
0.24742
-0.131006
0.0296928
0.442019
0.548966
0.437084
0.359292
0.17656
-0.0941476
-0.0290549
0.378027
0.510942
0.185343
0.0330708
0.365577
0.608597
0.383721
0.191817
0.425071
0.656334
0.466597
0.16135
0.167991
0.335112
0.339323
0.258056
0.308856
0.430583
0.456109
0.402651
0.382162
0.417251
0.445536
0.454961
0.49551
0.557944
0.515233
0.337449
0.269267
0.449527
0.579215
0.408739
0.213906
0.456291
0.433066
0.448239
0.50267
0.526918
0.463433
0.412974
0.4534
0.410784
0.203
0.148664
0.39954
0.471403
0.0574679
-0.259553
0.0399803
0.461155
0.388762
0.148111
0.281253
0.5281
0.426873
0.212336
0.281263
0.419267
0.3005
0.109672
0.0894688
0.1261
0.180105
0.407954
0.644761
0.530748
0.235014
0.275345
0.563227
0.506609
0.114564
0.0432522
0.398875
0.548261
0.266835
0.0688186
0.247596
0.455269
0.428364
0.3747
0.451759
0.497232
0.422422
0.376268
0.430911
0.462393
0.363896
0.22363
0.221684
0.362782
0.404824
0.217274
0.0866722
0.287482
0.576282
0.579277
0.398026
0.438702
0.423058
0.43872
0.479372
0.495394
0.422773
0.331462
0.355044
0.44969
0.483316
0.511351
0.586872
0.470439
0.0755489
-0.124861
0.189292
0.548821
0.442236
0.128141
0.0998961
0.29164
0.394278
0.41702
0.428867
0.278754
-0.00863158
-0.0948849
0.118339
0.350826
0.4649
0.529894
0.456471
0.197499
0.0886534
0.355442
0.578518
0.324806
-0.0433398
0.0633828
0.427001
0.422874
0.145021
0.175024
0.500304
0.593515
0.386666
0.310877
0.453611
0.477723
0.306234
0.228523
0.361484
0.486322
0.398114
0.174752
0.0951599
0.274716
0.461423
0.391296
0.231122
0.292527
0.50098
0.567288
0.488135
0.446052
0.462154
0.467075
0.468275
0.478584
0.43546
0.339556
0.335382
0.467016
0.551348
0.47729
0.358906
0.287331
0.252022
0.305618
0.445857
0.47363
0.288278
0.0778068
0.0129148
0.0438047
0.128254
0.285606
0.363335
0.198694
0.0069061
0.117435
0.401298
0.484172
0.343059
0.170659
-0.0230777
-0.186397
-0.0621431
0.312526
0.452883
0.203037
0.0754464
0.366254
0.601326
0.375376
0.11041
0.301575
0.619688
0.50408
0.14145
0.102632
0.357506
0.427531
0.235468
0.134776
0.28505
0.482966
0.513876
0.382832
0.294398
0.402567
0.584211
0.605593
0.477766
0.387731
0.372512
0.346623
0.35048
0.488025
0.522689
0.501411
0.447034
0.453432
0.477934
0.423271
0.38022
0.446938
0.447176
0.21119
-0.0460866
0.0190181
0.349644
0.534562
0.350552
0.0418188
-0.0116812
0.183661
0.267511
0.0948999
-0.030604
0.117361
0.29231
0.255689
0.225184
0.40262
0.510676
0.292248
0.00201396
-0.0686811
-0.027499
0.0152872
0.175037
0.380817
0.342927
0.147574
0.231408
0.566851
0.613039
0.257108
0.0707519
0.330011
0.54134
0.31468
0.0149952
0.104848
0.393483
0.446673
0.292914
0.226309
0.303027
0.393039
0.453086
0.484259
0.468705
0.428932
0.415725
0.429003
0.433493
0.404758
0.319334
0.199012
0.172645
0.484626
0.516114
0.492909
0.408126
0.404257
0.488039
0.488748
0.412801
0.419246
0.427029
0.228137
-0.0276722
0.0572308
0.432592
0.520115
0.0724664
-0.344687
-0.135984
0.418764
0.585573
0.251546
-0.000636909
0.136439
0.30448
0.243374
0.207909
0.326321
0.281793
-0.00968227
-0.117569
0.157983
0.460794
0.527679
0.489931
0.429464
0.255163
0.0884156
0.172181
0.356583
0.282286
0.0471166
0.0731247
0.339149
0.415135
0.238365
0.190315
0.391714
0.514201
0.396845
0.307107
0.376237
0.38488
0.245348
0.186015
0.311885
0.399301
0.271047
0.0755869
0.049217
0.20199
0.368683
0.41748
0.326722
0.198279
0.392812
0.433919
0.468457
0.394562
0.362654
0.469158
0.511536
0.389433
0.338079
0.461566
0.506096
0.356873
0.296715
0.44769
0.434868
0.0527455
-0.210568
0.0817775
0.518649
0.468729
0.0847714
-0.00225953
0.254475
0.317736
0.0641428
-0.0595086
0.0709474
0.0876352
-0.0591817
0.0277049
0.39136
0.586676
0.441141
0.249394
0.198395
0.174942
0.120075
0.0987978
0.0701286
-0.00961511
0.0181701
0.238178
0.387466
0.27427
0.180557
0.378089
0.597922
0.458904
0.152041
0.164191
0.430609
0.463177
0.19231
0.0327793
0.174014
0.326866
0.245078
0.0760096
0.0626952
0.201829
0.363549
0.49676
0.532936
0.385
0.255803
0.334675
0.46722
0.413926
0.324492
0.424376
0.506199
0.324948
0.159308
0.337452
0.599956
0.528183
0.253493
0.173702
0.26391
0.266738
0.257335
0.363195
0.319307
-0.0374668
-0.279234
-0.0145625
0.381062
0.305453
-0.0843562
-0.161678
0.106931
0.237668
0.142472
0.148131
0.253164
0.137144
-0.164034
-0.266682
-0.0545969
0.214926
0.322424
0.264138
0.13749
0.0949693
0.252675
0.458514
0.392997
0.0936516
0.0164485
0.306843
0.498438
0.260007
-0.0374035
0.0868467
0.423974
0.463043
0.23514
0.149167
0.288116
0.38919
0.365287
0.376089
0.445068
0.408488
0.286183
0.327161
0.510549
0.4843
0.143228
0.26459
0.488066
0.430812
0.252256
0.326699
0.47464
0.295343
0.018245
0.130134
0.447921
0.397272
0.00999932
-0.141204
0.118149
0.417079
0.501736
0.381601
0.0629601
-0.28237
-0.260594
0.169435
0.457095
0.224115
-0.109719
0.00608154
0.362565
0.424447
0.209163
0.0843825
0.0607244
-0.0814097
-0.251592
-0.184734
0.0948539
0.33431
0.41083
0.376945
0.305947
0.280269
0.360596
0.433295
0.297238
0.0246573
-0.0431893
0.167123
0.307091
0.194752
0.110016
0.273342
0.425497
0.317862
0.195482
0.310977
0.447395
0.357275
0.252502
0.405712
0.593844
0.428874
0.0566521
0.00976975
0.316015
0.412942
0.102803
0.246498
0.508565
0.422172
0.164832
0.216586
0.453271
0.389556
0.120496
0.125345
0.353232
0.325684
0.0433488
-0.0192845
0.226739
0.391165
0.308044
0.161439
0.0681293
0.0606998
0.203793
0.381921
0.303646
-0.0158159
-0.134415
0.140192
0.381689
0.226818
-0.0538682
-0.0651388
0.113053
0.228738
0.292352
0.380571
0.391019
0.25088
0.111025
0.117389
0.181809
0.166755
0.114394
0.127408
0.175495
0.183805
0.185029
0.216969
0.233893
0.258945
0.378967
0.505652
0.400056
0.122037
0.0807875
0.35362
0.469614
0.18704
-0.062867
0.109479
0.381058
0.254216
-0.0912831
-0.0748325
0.281596
0.35293
0.146761
0.290671
0.502927
0.388135
0.142914
0.201615
0.468145
0.53015
0.385817
0.336619
0.394569
0.35007
0.275198
0.369517
0.454051
0.240015
-0.0714932
-0.0699903
0.22376
0.465328
0.45747
0.229417
-0.0839706
-0.255705
-0.119301
0.139723
0.137395
-0.142492
-0.292033
-0.100987
0.186535
0.34486
0.425321
0.447082
0.281258
-0.0389106
-0.229201
-0.133241
0.0447516
0.0442144
-0.088163
-0.094338
0.113977
0.349076
0.412291
0.306025
0.183205
0.196424
0.347126
0.44875
0.321771
0.0942079
0.103245
0.357632
0.43873
0.164871
-0.0813027
0.0373185
0.273191
0.237073
0.0671139
0.169162
0.447699
0.399492
0.244054
0.367919
0.43168
0.316831
0.215725
0.292389
0.416823
0.450132
0.460489
0.477257
0.38383
0.21996
0.24578
0.4652
0.473432
0.0995231
-0.2215
-0.0985483
0.245513
0.356711
0.134625
-0.170672
-0.293467
-0.157911
0.0813275
0.154342
-0.0205502
-0.192984
-0.115337
0.0865988
0.114855
-0.037469
-0.126052
-0.081142
-0.0618226
-0.117244
-0.0970372
0.0678913
0.225486
0.214442
0.0771223
0.00597808
0.0973866
0.239329
0.278213
0.199066
0.090154
0.0294624
0.0506287
0.143773
0.235151
0.259361
0.266896
0.323182
0.361391
0.311572
0.256215
0.304558
0.391608
0.382086
0.317361
0.346396
0.423089
0.34462
0.348212
0.40443
0.259914
0.18655
0.314401
0.389446
0.226987
0.0874703
0.23849
0.437081
0.310965
0.0170988
-0.000777722
0.229426
0.281398
0.0888835
0.0107405
0.145081
0.183658
-0.0255833
-0.25154
-0.248122
-0.02963
0.208274
0.267294
0.109521
-0.0599339
0.00409922
0.238391
0.311297
0.0682968
-0.26446
-0.388143
-0.265751
-0.0548836
0.1362
0.278381
0.339037
0.319445
0.285832
0.263682
0.208065
0.0996925
-0.0107075
-0.0412641
0.0362627
0.122528
0.075946
-0.0645773
-0.0599525
0.180409
0.396665
0.34071
0.155322
0.151479
0.342741
0.460037
0.389296
0.301476
0.321718
0.326021
0.192689
0.0425897
0.0681861
0.4386
0.359786
0.0454413
0.055367
0.390743
0.458726
0.0816094
-0.173071
0.0744976
0.405274
0.328373
0.0450123
-0.0101412
0.0987699
0.104875
0.115447
0.301751
0.417803
0.186346
-0.153135
-0.178635
0.0984174
0.331967
0.310301
0.0903183
-0.137482
-0.171796
0.0273708
0.232342
0.209594
0.0423643
-0.0253526
0.053225
0.144689
0.193711
0.2524
0.277865
0.158912
-0.0268401
-0.0503687
0.116225
0.238761
0.153164
-0.0393193
-0.112923
0.0399675
0.279096
0.33524
0.145428
0.000742669
0.147155
0.357647
0.263395
-0.0151812
-0.0275843
0.257984
0.373808
0.123817
-0.0910061
0.0451784
0.225132
0.0567199
-0.232628
-0.132746
0.478423
0.272551
-0.0610923
0.0456139
0.439794
0.483195
0.132107
-0.021432
0.22995
0.431782
0.323023
0.207276
0.268688
0.238867
0.031566
0.00378498
0.25114
0.35072
0.10537
-0.083981
0.0856612
0.321889
0.25221
-0.0439213
-0.268014
-0.304339
-0.209573
-0.0965833
-0.0975644
-0.19189
-0.143391
0.146706
0.406009
0.35548
0.106284
-0.0376488
-0.047599
-0.130906
-0.293564
-0.305067
-0.0975523
0.124172
0.191741
0.136228
0.0685725
0.0906699
0.238295
0.37944
0.321836
0.136259
0.103773
0.228986
0.213357
0.029734
0.0285197
0.280566
0.342043
0.00364454
-0.260563
-0.0310203
0.33551
0.277146
-0.0401964
-0.0163302
0.397523
0.193016
0.0204523
0.185005
0.41086
0.333646
0.174233
0.291149
0.464631
0.309643
0.0534838
0.159507
0.45215
0.386737
0.00823252
-0.142277
0.00688838
0.0343475
-0.127359
-0.113928
0.109957
0.141245
-0.137047
-0.352296
-0.263369
-0.0609889
0.0186364
-0.0462215
-0.203451
-0.356438
-0.312895
-0.0402388
0.159371
0.0274187
-0.252177
-0.309879
-0.124186
0.0166957
-0.00694696
-0.0513513
-0.0336157
-0.00327698
0.0591148
0.175708
0.197884
0.0416636
-0.0663418
0.0668665
0.225492
0.157316
0.0440337
0.140463
0.27889
0.218965
0.145795
0.299271
0.439851
0.260963
0.0213815
0.149678
0.473708
0.49778
0.243454
0.160995
0.236403
0.139488
0.191497
0.35922
0.292848
0.0117632
0.0188635
0.387797
0.488341
0.048008
-0.290536
-0.0195405
0.39134
0.320149
-0.0129354
-0.0706282
0.0438265
-0.0557849
-0.238506
-0.164303
0.00707591
-0.0854966
-0.296776
-0.211562
0.12181
0.286132
0.176172
0.0553563
0.0300101
-0.0395278
-0.162367
-0.201108
-0.17803
-0.226831
-0.282539
-0.152983
0.120444
0.29729
0.306858
0.256674
0.137799
-0.0828886
-0.183843
0.0167742
0.222901
0.0662656
-0.223669
-0.175185
0.0971768
0.125832
-0.0314222
0.0614761
0.33872
0.33326
0.0723674
0.0546494
0.348123
0.490042
0.327615
0.202628
0.259854
0.272645
0.167207
0.124868
0.17048
0.112707
0.270733
0.437229
0.220895
-0.170745
-0.117718
0.314814
0.382637
-0.0549683
-0.266533
0.0550962
0.29794
0.0841976
-0.096496
0.127218
0.328302
0.123638
-0.138455
-0.0815164
0.0378141
-0.0784926
-0.167481
0.0636503
0.324197
0.205213
-0.109743
-0.134189
0.144841
0.285744
0.101972
-0.126296
-0.152523
-0.0523621
0.0491561
0.155645
0.217571
0.140684
0.0396946
0.0935806
0.146659
-0.0498802
-0.265447
-0.0936113
0.258816
0.241997
-0.0600083
-0.0780114
0.187447
0.186813
-0.0990262
-0.0882806
0.277292
0.355582
-0.033593
-0.254175
0.0499453
0.39405
0.326522
0.0572468
-0.0784826
-0.0761475
-0.0152424
0.0818494
0.244071
0.0911934
0.173684
0.375016
0.29157
0.00223932
0.00571111
0.278072
0.289828
0.0428475
0.0798447
0.372306
0.303345
-0.135101
-0.236275
0.161012
0.393055
0.1373
-0.111168
-0.006034
0.106826
-0.0387901
-0.138575
0.0230388
0.115315
-0.14618
-0.465171
-0.401236
-0.0332625
0.168873
0.0383999
-0.109455
-0.0350872
0.114991
0.160132
0.131533
0.0310719
-0.207384
-0.391678
-0.224247
0.107394
0.118132
-0.123699
-0.0856511
0.239175
0.302974
0.05326
0.0404124
0.331029
0.331064
-0.0748939
-0.221054
0.149949
0.394022
0.113689
-0.184616
-0.0485183
0.205582
0.185024
0.0332842
-0.0170867
0.011474
0.100399
0.244233
0.304815
0.0834654
0.0143455
0.235342
0.389871
0.290888
0.212007
0.249183
0.171975
0.0637695
0.242442
0.490184
0.292829
-0.169199
-0.23063
0.0993178
0.185329
-0.109686
-0.257061
-0.0562981
0.0619646
-0.12764
-0.289918
-0.202073
-0.0962748
-0.170867
-0.282578
-0.244594
-0.13458
-0.15174
-0.265872
-0.245131
-0.0806295
-0.0273585
-0.135862
-0.162793
-0.0749751
-0.130756
-0.2927
-0.182131
0.171168
0.258939
-0.00591753
-0.112645
0.0969215
0.149727
-0.0931733
-0.112455
0.251844
0.407536
0.0725462
-0.180859
0.0630469
0.381348
0.348613
0.196595
0.189435
0.173101
0.0928275
0.168526
0.343641
0.344296
0.256864
0.323554
0.314089
0.16905
-0.00746711
0.142652
0.360552
0.322342
0.196783
0.167067
0.0906664
-0.0293634
0.0440387
0.225712
0.180338
-0.00820511
0.0257996
0.183065
0.0653084
-0.249416
-0.310684
-0.0823952
0.0146514
-0.164878
-0.31403
-0.235981
-0.0516628
0.106396
0.201571
0.18459
0.0152353
-0.227264
-0.345479
-0.224833
-0.0629284
-0.153386
-0.383348
-0.326103
0.0464128
0.254492
0.114138
0.0188698
0.159677
0.180715
-0.0720603
-0.196368
-0.00521095
0.0731597
-0.18457
-0.312159
-0.00416656
0.298922
0.202656
0.000648668
0.0389229
0.175138
0.2474
0.351541
0.403854
0.198733
-0.00929804
0.179938
0.487102
0.379277
0.0566108
0.0692814
0.386996
0.327126
0.112957
0.14867
0.234662
0.105608
0.0106025
0.1506
0.226296
0.0339969
-0.145398
-0.0868951
0.0462505
0.119578
0.205845
0.244156
0.0830215
-0.142085
-0.160177
-0.0149104
0.0285015
-0.0709251
-0.13799
-0.109608
-0.0377345
0.0731648
0.192611
0.205636
0.0677698
-0.106858
-0.150711
-0.0172275
0.0999984
-0.0316252
-0.281967
-0.244191
0.117208
0.326811
0.146571
-0.0704583
-0.0486923
-0.0227197
-0.171279
-0.208656
0.0380798
0.204272
0.00842914
-0.227823
-0.152331
0.061217
0.145047
0.147236
0.103486
-0.0564245
-0.133432
0.110935
0.35921
0.178179
-0.110831
0.0470771
0.352399
0.176116
-0.227587
-0.172783
0.447934
0.334979
0.167442
0.204677
0.192879
-0.0224573
-0.0717117
0.229514
0.439895
0.231562
-0.074476
-0.102555
0.0193917
0.03723
-0.00587369
-0.00299101
0.000760745
-0.0243024
-0.0371462
-0.0444447
-0.0680579
-0.0668711
-0.0418651
-0.0863274
-0.218049
-0.321214
-0.31791
-0.243549
-0.152475
-0.0829724
-0.0478458
0.00111747
0.0685549
0.0515869
-0.0637905
-0.101863
-0.00667006
-0.00248088
-0.185408
-0.301979
-0.191245
-0.0716899
-0.118557
-0.134141
0.0514382
0.233526
0.197618
0.0552601
-0.0421214
-0.105487
-0.0646827
0.157407
0.279362
0.0217858
-0.264739
-0.088816
0.269471
0.218783
-0.0498044
0.0328242
0.286039
0.165419
-0.121957
-0.0154993
0.280907
0.0904207
0.086558
0.277393
0.313089
0.104294
0.0230777
0.223234
0.347951
0.187511
0.0347241
0.105093
0.147027
-0.0581491
-0.289274
-0.275983
-0.097569
-0.00141068
-0.0800595
-0.224883
-0.283625
-0.221557
-0.14873
-0.171179
-0.268915
-0.372972
-0.445049
-0.428982
-0.287138
-0.131468
-0.128361
-0.234134
-0.246728
-0.120147
-0.0114938
-0.0259766
-0.122147
-0.237328
-0.301715
-0.227677
-0.0535084
0.0455047
-0.000668536
-0.0721194
-0.0778559
-0.0418089
0.0512251
0.196228
0.192956
-0.0639431
-0.22422
0.0490068
0.408643
0.320473
-0.00578673
0.0106867
0.292328
0.319559
0.130305
0.157989
0.346305
0.333087
0.223182
0.310053
-0.000803449
-0.115041
0.0668988
0.335584
0.394323
0.25222
0.139983
0.10276
0.0028064
-0.105758
-0.00892198
0.234447
0.281511
0.0293526
-0.204296
-0.163096
0.00622338
0.0168402
-0.16222
-0.320472
-0.324949
-0.268678
-0.266124
-0.238327
-0.0737177
0.0985567
0.0680711
-0.0984401
-0.163964
-0.109309
-0.141086
-0.320341
-0.431592
-0.306589
-0.0878153
-0.0248017
-0.122471
-0.169909
-0.0498476
0.115397
0.139647
0.0355193
-0.0303209
-0.0341158
-0.128547
-0.299649
-0.25862
0.0823159
0.313486
0.104516
-0.200441
-0.0886999
0.283295
0.383965
0.195463
0.12618
0.246899
0.273589
0.175377
0.17404
0.2716
0.309172
0.321244
0.36536
-0.0273166
0.0281547
0.229112
0.290199
0.19562
0.155144
0.18622
0.107174
-0.0887742
-0.173766
-0.0425991
0.132496
0.160984
0.0749981
0.038518
0.0936277
0.10402
-0.0367586
-0.216808
-0.231855
-0.0997992
-0.0780099
-0.251892
-0.323452
-0.0458099
0.329035
0.370029
0.0842673
-0.153144
-0.141686
-0.0506492
-0.105341
-0.250061
-0.263438
-0.139952
-0.0947453
-0.162951
-0.112669
0.132797
0.279049
0.0825891
-0.211223
-0.197238
0.0503073
0.086636
-0.178553
-0.323919
-0.090521
0.207953
0.18677
-0.0404127
-0.117392
0.00509293
0.107986
0.100696
0.0718734
0.0774437
0.0909432
0.0957399
0.0923062
0.077113
0.0863559
0.154551
0.199732
0.201788
0.339156
0.404798
0.145816
-0.135164
-0.0486709
0.219727
0.278304
0.166649
0.118351
0.0764103
-0.0775659
-0.186995
-0.102086
0.0376835
0.0393778
-0.0884866
-0.225999
-0.269358
-0.146957
0.0605244
0.0878608
-0.163133
-0.399564
-0.323239
-0.0748533
-0.0184003
-0.213985
-0.389881
-0.320373
-0.0786771
0.0595498
-0.0198567
-0.132798
-0.143519
-0.173472
-0.274888
-0.239793
0.000721958
0.121
-0.118486
-0.396
-0.260569
0.148983
0.313034
0.115676
-0.103639
-0.125591
-0.0300682
0.0690919
0.111501
0.0328091
-0.105174
-0.112095
0.0237673
0.0834155
0.0163168
0.0255977
0.149472
0.178424
0.0661392
0.0219735
0.115376
0.173434
0.261336
0.375067
0.397099
0.0831597
-0.174089
-0.00168204
0.279051
0.290384
0.235753
0.307249
0.210499
-0.158986
-0.357498
-0.183433
-0.0357856
-0.173385
-0.33378
-0.2949
-0.199861
-0.16458
-0.102411
-0.0228661
-0.0644402
-0.237251
-0.396217
-0.439763
-0.39997
-0.36982
-0.395182
-0.383865
-0.237176
-0.078558
-0.0835221
-0.165071
-0.164165
-0.16427
-0.268897
-0.321247
-0.191663
-0.0736271
-0.152802
-0.234414
-0.080132
0.13867
0.165794
0.112267
0.109069
0.000887412
-0.195567
-0.139668
0.166504
0.244815
0.00285537
-0.0723453
0.163922
0.264171
0.0941039
0.0699088
0.296366
0.377646
0.212973
0.150427
0.278114
0.315853
0.0170192
0.100405
0.250805
0.17473
0.127271
0.296124
0.304353
-0.0017403
-0.120639
0.138367
0.23176
-0.0518508
-0.172481
0.0593941
0.113218
-0.186806
-0.322671
-0.0821322
0.0691064
-0.149035
-0.389087
-0.296218
0.000969682
0.130221
-0.0453991
-0.266401
-0.223499
-0.00483987
0.0307727
-0.169119
-0.311384
-0.299682
-0.302105
-0.323203
-0.227546
-0.0978158
-0.116231
-0.21754
-0.222155
-0.136803
-0.03955
0.0912729
0.180917
0.0239616
-0.251777
-0.184533
0.176686
0.196253
-0.184435
-0.254549
0.155329
0.337036
0.0576935
-0.0394735
0.261441
0.359774
0.0776414
-0.00806286
0.266114
0.379615
0.195984
0.160053
0.349325
0.36096
-0.112148
-0.0420917
0.16767
0.227839
0.30437
0.450592
0.267314
-0.239633
-0.392616
-0.0078063
0.236567
0.0519556
-0.00741403
0.241098
0.23506
-0.142931
-0.265276
0.070461
0.266876
-0.0446648
-0.452773
-0.44625
-0.0637794
0.239342
0.160334
-0.0669569
-0.0179982
0.251568
0.285405
-0.0121851
-0.265673
-0.308233
-0.329589
-0.37172
-0.279607
-0.0986377
-0.0381809
-0.112996
-0.17804
-0.169139
-0.059878
0.151613
0.245137
-0.0399359
-0.431889
-0.313495
0.205523
0.302475
-0.119458
-0.240762
0.147601
0.28116
-0.0674925
-0.178762
0.167173
0.288042
-0.0223
-0.135806
0.13205
0.23189
0.0374364
0.0346769
0.276408
0.290522
0.110175
0.184791
0.244073
0.110632
0.0829362
0.270161
0.244224
-0.0845029
-0.15591
0.171861
0.288667
-0.0161476
-0.16968
0.0372671
0.0819369
-0.217328
-0.361331
-0.119469
0.11025
0.0158955
-0.223493
-0.319695
-0.216502
-0.0885521
-0.135912
-0.280252
-0.256764
-0.0814577
-0.0531959
-0.2039
-0.249679
-0.150671
-0.144731
-0.247634
-0.260675
-0.179802
-0.150555
-0.16235
-0.15198
-0.181532
-0.225469
-0.120603
0.0648043
0.0359491
-0.152906
-0.0764821
0.221214
0.186725
-0.160331
-0.179156
0.166226
0.19217
-0.178934
-0.247086
0.125005
0.270552
0.0178974
-0.0578685
0.180613
0.237911