# vtk DataFile Version 3.0
PFC-RG simulation results
ASCII
DATASET STRUCTURED_POINTS
DIMENSIONS 64 64 1
ORIGIN 0 0 0
SPACING 1 1 1
POINT_DATA 4096
SCALARS psi double
LOOKUP_TABLE default
0.495385
0.543232
0.528222
0.465518
0.482115
0.536938
0.535176
0.506264
0.515467
0.540861
0.534059
0.5056
0.509386
0.54871
0.557529
0.507654
0.478291
0.539569
0.590007
0.523166
0.445611
0.513418
0.613358
0.552811
0.445312
0.49938
0.618824
0.566632
0.423194
0.43957
0.580217
0.61213
0.521029
0.473506
0.496779
0.501244
0.463956
0.430784
0.438227
0.473031
0.518221
0.547253
0.407778
0.0673048
-0.0819396
0.216286
0.55817
0.565677
0.506344
0.615624
0.50728
-0.0273804
-0.358353
0.00582782
0.534789
0.615704
0.515741
0.595219
0.512735
0.028701
-0.309483
-0.0393762
0.447176
0.610302
0.0343381
0.0475813
0.303362
0.545271
0.462109
0.117822
-0.00486952
0.304453
0.584159
0.387077
0.0147807
0.0522253
0.44055
0.56885
0.238006
-0.0383949
0.15974
0.521294
0.488351
0.123934
-0.00974497
0.271574
0.50814
0.370727
0.151968
0.178248
0.312525
0.327263
0.326089
0.397121
0.345227
0.152754
0.152257
0.401872
0.483144
0.260308
0.166756
0.41398
0.575179
0.316915
0.0202824
0.159124
0.449218
0.377042
0.175662
0.291411
0.455889
0.299914
0.159556
0.36721
0.5034
0.202487
-0.0497868
0.204049
0.503762
0.355449
0.151207
0.330859
0.512428
0.276555
-0.0213497
0.0852341
0.40817
0.500415
-0.284303
-0.290553
0.0801346
0.451389
0.324412
-0.191205
-0.363047
0.0936336
0.484603
0.182649
-0.34588
-0.265338
0.295859
0.449143
-0.0424072
-0.401981
-0.0769453
0.410069
0.299647
-0.213364
-0.326231
0.102406
0.380112
0.120768
-0.204194
-0.143375
0.0894957
0.156109
0.142479
0.151008
-0.00480253
-0.256945
-0.168696
0.25707
0.404943
0.0920048
-0.046558
0.30361
0.499719
0.0640191
-0.396504
-0.16075
0.410929
0.574465
0.451213
0.489397
0.428041
-0.0313159
-0.346676
-0.0111318
0.496417
0.565384
0.456623
0.560004
0.50947
0.00219913
-0.364698
-0.0435483
0.499072
0.609248
0.432199
0.396868
0.459722
0.342964
0.0341261
0.0320923
0.276031
0.528702
0.463846
0.128722
0.0126096
0.329079
0.601161
0.382526
0.00796273
0.0750398
0.478644
0.577867
0.220811
-0.02077
0.229128
0.566706
0.459936
0.0931155
0.0513701
0.382318
0.549237
0.309503
0.0727609
0.166707
0.365423
0.382509
0.321417
0.302843
0.177786
-0.00992506
0.0903451
0.456143
0.525368
0.131547
-0.0786516
0.267291
0.544391
0.235597
-0.124195
0.0851275
0.480987
0.454574
0.284734
0.432145
0.517796
0.132988
-0.193261
0.0845235
0.50873
0.491046
0.340905
0.482255
0.526128
0.109281
-0.220642
0.0607288
0.491807
0.488255
0.303802
0.366603
0.512836
0.437645
0.426017
0.52009
0.515316
0.44928
0.469061
0.534058
0.543393
0.519877
0.517521
0.524335
0.523671
0.524367
0.525308
0.518977
0.516944
0.529936
0.538397
0.524423
0.504765
0.515052
0.548523
0.55318
0.508356
0.475926
0.523561
0.580873
0.534315
0.436248
0.461316
0.575618
0.545782
0.3912
0.402532
0.592336
0.538956
0.110565
-0.123771
0.215841
0.605406
0.547286
0.399325
0.531905
0.53946
0.0924966
-0.231211
0.0967252
0.558887
0.535962
0.366409
0.494598
0.522872
0.089654
-0.236972
0.0716148
0.516487
0.50362
0.359211
0.488534
0.495681
0.0771479
-0.202473
0.0853719
0.467449
0.496527
0.264406
0.559436
0.382252
-0.0164416
0.035088
0.463264
0.585855
0.223001
-0.046246
0.195191
0.569086
0.493381
0.0843696
-0.0211945
0.341326
0.602523
0.351453
-0.0157534
0.0742064
0.47383
0.556137
0.200458
-0.0426624
0.185129
0.531557
0.488733
0.133074
-0.0376744
0.197148
0.504222
0.483633
0.225617
0.129954
0.295725
0.350365
0.0870627
-0.070829
0.21465
0.516149
0.444005
0.362916
0.544654
0.51589
0.00203704
-0.343071
0.0105754
0.519083
0.555512
0.438887
0.567276
0.525056
0.00406829
-0.355316
-0.0110856
0.501268
0.55877
0.46608
0.583759
0.497319
-0.0108672
-0.265724
0.0938077
0.390392
0.210668
-0.0510147
0.41183
0.220352
-0.306982
-0.255978
0.305793
0.465052
-0.040336
-0.416693
-0.0734563
0.457132
0.348203
-0.231199
-0.374033
0.143387
0.504762
0.139764
-0.37217
-0.224859
0.341041
0.432
-0.0826008
-0.392347
-0.0355867
0.421688
0.300301
-0.185898
-0.332403
0.0348299
0.39252
0.274762
-0.133898
-0.293049
-0.0105065
0.316844
0.320818
0.252702
0.403981
0.422309
0.0548378
-0.157886
0.170275
0.502913
0.358476
0.169772
0.365431
0.494094
0.160227
-0.0979719
0.194056
0.523891
0.377319
0.183105
0.376858
0.503082
0.175732
-0.0643428
0.217869
0.493226
0.334758
0.229948
0.45851
0.411869
-0.102325
0.113148
0.513948
0.39512
0.0135089
0.0638043
0.476101
0.583499
0.217772
-0.0455488
0.202155
0.576598
0.498922
0.0928701
-0.00384683
0.362265
0.614187
0.353696
-0.00349879
0.10888
0.507451
0.561796
0.200577
0.00256199
0.261249
0.558197
0.454059
0.138573
0.0749589
0.331676
0.546991
0.404243
0.0240199
-0.14307
0.137707
0.514065
0.556995
0.456718
0.528354
0.451871
-0.0366489
-0.353118
0.00163047
0.520072
0.599121
0.50875
0.608484
0.510243
-0.0479366
-0.405501
-0.0310179
0.521993
0.610916
0.519945
0.619081
0.512545
-0.0468232
-0.389342
-0.0189514
0.495069
0.568622
0.517658
0.636895
0.510737
0.0337531
0.458883
0.564693
0.536572
0.463139
0.489212
0.54168
0.532053
0.506011
0.51362
0.525966
0.518119
0.51155
0.519897
0.527844
0.524101
0.516161
0.515313
0.525062
0.532199
0.520888
0.505112
0.518608
0.54875
0.536532
0.490712
0.497398
0.559155
0.560122
0.497263
0.507026
0.553172
0.461066
0.34058
0.44336
0.568764
0.373915
0.14088
0.294163
0.502754
0.309307
0.0864382
0.287659
0.513184
0.31936
0.117388
0.332569
0.520185
0.249842
0.0037683
0.25013
0.518192
0.326936
0.114154
0.326227
0.513984
0.248902
0.0075059
0.244705
0.514796
0.357
0.143839
0.288479
0.493554
0.445367
0.338535
0.170162
0.27306
0.503588
0.472444
0.138897
0.00085375
0.315579
0.602731
0.385779
-0.00635476
0.0524991
0.472471
0.585561
0.212352
-0.0557077
0.203322
0.579392
0.478894
0.0574935
-0.024569
0.362587
0.607937
0.316588
-0.0529481
0.0911303
0.513785
0.522359
0.120066
-0.0102979
0.318854
0.560391
0.486019
0.420999
0.349979
0.0101045
-0.262848
0.0125656
0.494489
0.59762
0.510853
0.588999
0.493563
-0.0342719
-0.381254
-0.0259108
0.512234
0.595271
0.493488
0.594974
0.51923
-0.0211544
-0.391685
-0.0426699
0.509156
0.606286
0.490765
0.568953
0.539005
0.0953909
-0.308716
-0.152586
0.339239
0.616641
-0.0626018
-0.236989
0.0320955
0.424232
0.349937
-0.168138
-0.368885
0.0912441
0.503825
0.199022
-0.350922
-0.267611
0.320477
0.477773
-0.0459356
-0.419995
-0.0538084
0.472288
0.327702
-0.25849
-0.361741
0.178606
0.503657
0.0948534
-0.393071
-0.178022
0.380939
0.367126
-0.175228
-0.338326
0.107946
0.43927
0.336606
0.236994
0.239934
0.0608856
-0.0886643
0.153817
0.462867
0.399006
0.271869
0.443475
0.505462
0.114084
-0.182128
0.113255
0.511661
0.453303
0.290907
0.451592
0.522011
0.123745
-0.195006
0.0938318
0.515303
0.475558
0.282737
0.401631
0.527132
0.244894
-0.126199
-0.0678042
0.316899
0.516873
-0.0894048
-0.0633935
0.252171
0.560814
0.500469
0.127852
-0.0188969
0.306662
0.605584
0.396427
0.00845941
0.0652369
0.479133
0.590703
0.223612
-0.0379491
0.21953
0.587722
0.486049
0.0778476
0.0101964
0.390251
0.613379
0.322282
-0.0144272
0.146915
0.535688
0.510233
0.132967
0.0438912
0.336639
0.46057
0.294311
0.279137
0.443692
0.459526
0.423988
0.52912
0.449066
-0.0131634
-0.284787
0.072925
0.532684
0.529472
0.396625
0.528776
0.520375
0.0473452
-0.290934
0.0369671
0.518429
0.533752
0.390623
0.51599
0.5302
0.0776568
-0.290742
-0.0156649
0.485331
0.575131
0.387347
0.368848
0.491593
0.451985
0.256869
0.406739
0.504864
0.491408
0.49303
0.521309
0.521178
0.509903
0.515722
0.524521
0.523651
0.520241
0.51845
0.51773
0.520921
0.525261
0.522409
0.515967
0.517368
0.524582
0.526223
0.522706
0.520602
0.517583
0.517693
0.528326
0.527801
0.497918
0.495313
0.557882
0.555369
0.381542
0.261332
0.424069
0.604426
0.524324
0.447085
0.565593
0.476226
-0.0197361
-0.308316
0.0572008
0.533729
0.547459
0.427294
0.556567
0.523419
0.0188687
-0.333743
0.00550766
0.514604
0.560058
0.435386
0.551278
0.5276
0.0427749
-0.317149
-0.0169558
0.469817
0.533094
0.396853
0.469081
0.574203
0.450752
0.448103
0.579627
0.347392
-0.03528
0.0241813
0.45566
0.598514
0.245711
-0.0433912
0.182474
0.56836
0.506441
0.0906291
-0.023759
0.346313
0.614835
0.353451
-0.0239646
0.081893
0.500915
0.566322
0.178044
-0.045305
0.243283
0.580829
0.441293
0.049563
0.00302713
0.358431
0.577967
0.339062
-0.00593933
0.0611591
0.438016
0.501102
0.10933
-0.108437
0.204256
0.521771
0.3969
0.239216
0.428855
0.516914
0.142399
-0.140779
0.153062
0.519355
0.415988
0.2328
0.409712
0.517894
0.161283
-0.12857
0.147767
0.507879
0.418233
0.252041
0.415997
0.488013
0.136134
-0.1036
0.170146
0.467652
0.375407
0.322676
0.515197
0.186068
-0.343912
-0.2754
0.300727
0.488402
-0.00580911
-0.410601
-0.0928451
0.451418
0.365967
-0.218266
-0.378784
0.141034
0.517018
0.149978
-0.377374
-0.226197
0.361874
0.451323
-0.0966633
-0.410551
0.000496149
0.481992
0.286495
-0.265039
-0.324709
0.16878
0.453122
0.143822
-0.212155
-0.0168728
0.445203
0.427048
-0.11977
-0.410346
-0.00290922
0.530899
0.59905
0.497672
0.597755
0.510344
-0.0401663
-0.405943
-0.0419164
0.515814
0.610734
0.512234
0.609711
0.521283
-0.0322069
-0.402482
-0.0471472
0.500051
0.601283
0.525583
0.620312
0.498987
-0.0292111
-0.292414
0.0727523
0.406025
0.259188
0.155873
0.505714
0.397708
0.0454473
0.0803592
0.467129
0.583279
0.235102
-0.0385594
0.189288
0.567767
0.505949
0.0980469
-0.0128126
0.352244
0.615722
0.357429
-0.0122968
0.095986
0.51001
0.571434
0.185698
-0.0332218
0.256599
0.595044
0.462193
0.0826454
0.041867
0.382798
0.583598
0.372814
0.110897
0.207082
0.508504
0.536421
0.203481
0.0076284
0.264211
0.505134
0.292118
0.0616267
0.279332
0.511237
0.287985
0.0527339
0.278198
0.516307
0.294162
0.0617553
0.287711
0.517027
0.284084
0.0493683
0.277949
0.511497
0.293332
0.0753089
0.290282
0.488273
0.284343
0.145915
0.385323
0.488297
0.204665
0.142028
0.430625
0.554202
0.535916
0.529926
0.532524
0.507837
0.498104
0.519904
0.529703
0.516554
0.510953
0.519682
0.524035
0.519801
0.517374
0.519627
0.52206
0.521846
0.518417
0.515116
0.518911
0.526466
0.522308
0.508436
0.511522
0.533977
0.538609
0.523586
0.533143
0.549684
0.496078
0.399007
0.405346
0.513211
0.538303
0.515184
0.587966
0.479892
-0.0268611
-0.372486
-0.0337838
0.508452
0.610247
0.513777
0.605879
0.518727
-0.0312665
-0.403952
-0.0461053
0.512036
0.609267
0.510766
0.607562
0.523388
-0.020468
-0.391146
-0.054181
0.484093
0.603907
0.53076
0.596856
0.546158
0.258264
0.227684
0.16183
0.2834
0.512244
0.491277
0.151919
-0.0106438
0.297771
0.603923
0.399714
0.00140796
0.0526459
0.473958
0.58958
0.215965
-0.0493643
0.21478
0.587094
0.47641
0.0566753
-0.010412
0.380647
0.612637
0.31672
-0.0455739
0.0926235
0.509822
0.549776
0.169629
-0.0131611
0.258766
0.501909
0.350593
0.132306
0.190582
0.327627
0.373897
0.467075
0.465114
0.139379
-0.107398
0.155284
0.502592
0.419105
0.252283
0.42343
0.519012
0.150913
-0.146476
0.13763
0.516783
0.430705
0.249357
0.417857
0.522008
0.162898
-0.143114
0.119638
0.51187
0.469352
0.255062
0.309365
0.462898
0.419267
0.287822
-0.00105658
0.0371811
0.333245
0.330571
-0.120579
-0.341241
0.0824796
0.498011
0.207385
-0.345897
-0.26929
0.320935
0.47882
-0.0490648
-0.420667
-0.0458088
0.478925
0.322358
-0.266195
-0.356586
0.192382
0.513704
0.101431
-0.393535
-0.193846
0.378728
0.420132
-0.120013
-0.385385
0.00610044
0.432142
0.356709
0.0746067
-0.0299504
-0.0753349
-0.106939
0.12017
0.462818
0.523156
0.454223
0.556482
0.498859
0.0122798
-0.318481
0.0198232
0.516224
0.551538
0.425212
0.547643
0.526267
0.0328567
-0.325063
0.00428913
0.513302
0.559531
0.419485
0.524151
0.541714
0.120822
-0.275468
-0.109003
0.364334
0.587784
0.228551
0.182909
0.270216
0.462332
0.470636
0.177108
0.019481
0.305822
0.598192
0.39604
0.00409645
0.0583146
0.47757
0.588124
0.21264
-0.0488954
0.218133
0.58839
0.478209
0.0670764
0.00629918
0.390194
0.613061
0.327447
-0.0103601
0.134431
0.529182
0.547217
0.167315
-0.00995232
0.262625
0.54874
0.512006
0.34209
0.20545
0.0125019
-0.10513
0.124769
0.473393
0.517173
0.437296
0.546776
0.504415
0.0299797
-0.296811
0.0345551
0.515524
0.535993
0.404297
0.533391
0.525953
0.0453829
-0.307067
0.0174899
0.512034
0.543512
0.401845
0.513845
0.530209
0.108874
-0.257386
-0.0526447
0.394345
0.548457
0.0497364
0.435465
0.580802
0.511415
0.497485
0.53705
0.5302
0.508638
0.520275
0.53285
0.522046
0.51396
0.521229
0.525467
0.520769
0.518428
0.519622
0.518511
0.518935
0.524151
0.5247
0.516364
0.511753
0.519456
0.528839
0.526112
0.510881
0.495464
0.505246
0.539528
0.524466
0.422528
0.373059
0.484734
0.564194
0.437703
0.338222
0.467895
0.49007
0.129992
-0.137757
0.140966
0.513857
0.445603
0.28287
0.445837
0.521463
0.132013
-0.175264
0.116408
0.515112
0.447796
0.275254
0.43772
0.518965
0.136456
-0.165282
0.11746
0.501288
0.442368
0.276656
0.399642
0.468475
0.217169
-0.0105797
0.488183
0.470146
0.0770383
0.0570673
0.445949
0.582859
0.241343
-0.0272949
0.206766
0.577049
0.500382
0.0926781
-0.00687398
0.360968
0.615995
0.350245
-0.0201751
0.0910007
0.507573
0.565978
0.17037
-0.0553067
0.240584
0.58469
0.433323
0.0205656
-0.0262721
0.353402
0.585681
0.311378
-0.111551
-0.11239
0.305781
0.587598
0.489691
0.412323
0.56964
0.505934
-0.0240162
-0.383955
-0.034046
0.514496
0.606469
0.501974
0.599986
0.525486
-0.0179837
-0.394611
-0.0440182
0.509386
0.603365
0.504891
0.605634
0.520196
-0.0271281
-0.381546
-0.02219
0.494613
0.564538
0.496532
0.607603
0.472258
-0.0598676
0.255955
0.528373
0.249909
-0.310586
-0.282232
0.28709
0.47403
-0.0222114
-0.411546
-0.0766039
0.457582
0.350782
-0.231232
-0.372314
0.152274
0.514709
0.139691
-0.380661
-0.222684
0.361742
0.44485
-0.10289
-0.413202
-0.0030854
0.472205
0.269716
-0.28424
-0.341171
0.160361
0.452282
0.11403
-0.340297
-0.247523
0.255842
0.445072
0.121404
-0.0723189
0.236867
0.509843
0.297011
0.0652423
0.287523
0.515323
0.269211
0.0117629
0.243889
0.515108
0.321183
0.0917007
0.304607
0.517484
0.266685
0.0219401
0.259766
0.511044
0.303395
0.0968471
0.32304
0.498599
0.233166
0.0530492
0.321882
0.460776
0.112194
0.508272
0.624958
0.361808
-0.0492487
0.0169879
0.463563
0.589447
0.212797
-0.0659951
0.184074
0.56899
0.491595
0.0783292
-0.019958
0.352891
0.610626
0.347537
-0.0183923
0.0924963
0.503002
0.563975
0.186571
-0.0267083
0.253613
0.578656
0.451703
0.093417
0.053246
0.36471
0.552459
0.367779
0.122941
0.214483
0.521617
0.485848
-0.0350392
-0.363719
-0.0119269
0.509965
0.592341
0.492808
0.595686
0.526269
-0.0223475
-0.414004
-0.066249
0.504305
0.613653
0.512921
0.609286
0.527921
-0.0285223
-0.410987
-0.0544314
0.505828
0.608012
0.522327
0.617655
0.501093
-0.0524949
-0.366559
0.0131882
0.487813
0.492004
0.258866
0.448216
0.52613
0.468152
0.47117
0.532908
0.536219
0.499559
0.497277
0.52003
0.527063
0.519971
0.51674
0.51779
0.519293
0.522273
0.524448
0.522634
0.518486
0.515945
0.518111
0.526648
0.530575
0.514137
0.495308
0.515508
0.556633
0.539395
0.473494
0.47719
0.555738
0.56289
0.506994
0.543799
0.531259
0.236735
-0.00711271
0.210129
0.519265
0.42007
0.233503
0.398317
0.525459
0.191923
-0.105333
0.159309
0.519756
0.408927
0.205435
0.38478
0.524103
0.185685
-0.112784
0.156349
0.518035
0.416118
0.227506
0.396102
0.506226
0.173607
-0.102481
0.142454
0.509491
0.527894
-0.206459
0.0157449
0.373791
0.583068
0.455585
0.115194
0.0118679
0.32877
0.601025
0.388031
0.0133262
0.0777774
0.484966
0.583549
0.213696
-0.0369221
0.227668
0.585923
0.469413
0.0601073
-0.000637647
0.379571
0.596658
0.29858
-0.0518101
0.0959153
0.497301
0.492464
0.0897639
-0.0517287
0.24567
0.397745
0.156113
0.0495017
0.30965
0.48675
0.460514
0.531463
0.503641
0.0614518
-0.301176
-0.011817
0.497651
0.567962
0.442762
0.556757
0.542288
0.0414013
-0.345537
-0.0236457
0.507989
0.571722
0.442088
0.555414
0.534604
0.037934
-0.335518
-0.0176605
0.505578
0.58225
0.429792
0.46238
0.492287
0.259057
-0.171672
-0.103248
0.210004
0.457363
0.280057
-0.201524
-0.337463
0.121451
0.498239
0.18135
-0.352205
-0.255303
0.323754
0.46326
-0.0589902
-0.414482
-0.0450902
0.461586
0.307405
-0.262441
-0.356261
0.165069
0.476
0.0832102
-0.395703
-0.215439
0.309737
0.315331
-0.19044
-0.36518
-0.00106717
0.163552
-0.159123
-0.277077
0.126887
0.446143
0.419625
0.448438
0.457614
0.0767215
-0.27705
-0.0107017
0.479399
0.523477
0.365423
0.482435
0.52576
0.0910223
-0.275035
0.0190104
0.502959
0.52452
0.376563
0.507144
0.529387
0.0701868
-0.295633
0.00441597
0.501998
0.555071
0.390215
0.428504
0.468447
0.218548
0.28029
0.254394
0.369851
0.492047
0.403147
0.11812
0.0316198
0.337161
0.594817
0.371486
-0.0083885
0.0581585
0.471658
0.576031
0.208241
-0.0483295
0.205387
0.567228
0.474706
0.0781824
-0.00566368
0.349336
0.588482
0.336596
-0.00960062
0.0935706
0.461868
0.476456
0.126016
0.0247087
0.302663
0.392486
0.125692
0.0611074
0.334966
0.351267
0.0588782
0.106215
0.449192
0.464852
0.281161
0.392681
0.508773
0.16416
-0.189608
0.051497
0.488131
0.481439
0.309983
0.44697
0.522403
0.128751
-0.199831
0.0866108
0.508079
0.460971
0.282581
0.42766
0.508076
0.144144
-0.1556
0.0925948
0.479538
0.489125
0.369623
0.524196
0.529198
0.437089
0.456544
0.541253
0.549035
0.511657
0.515323
0.534643
0.52365
0.507922
0.518952
0.537229
0.535111
0.516031
0.504502
0.520955
0.548367
0.542004
0.501147
0.494005
0.542659
0.558336
0.502152
0.480594
0.538631
0.532735
0.427099
0.428652
0.558513
0.544048
0.376869
0.405113
0.56702
0.356848
-0.0889781
-0.0338596
0.455253
0.643222
0.527838
0.562025
0.533392
0.0753654
-0.322666
-0.0498366
0.488221
0.605534
0.500509
0.592592
0.536978
0.0113216
-0.372665
-0.0396787
0.502672
0.593531
0.498365
0.601753
0.512719
-0.0270337
-0.354895
0.0076708
0.487358
0.522409
-0.00206779
0.423631
0.377325
0.0311536
0.0769907
0.478006
0.569112
0.201132
-0.0348379
0.230106
0.581294
0.478812
0.0893123
0.0194944
0.374282
0.593394
0.331627
0.0076116
0.130869
0.491699
0.511523
0.178644
0.027784
0.248982
0.450254
0.353815
0.166003
0.110892
0.143522
0.197216
0.236726
0.162853
0.0324373
0.115516
0.361195
0.340002
0.0830229
0.117061
0.374602
0.31619
0.096448
0.221685
0.472505
0.363225
0.159976
0.325108
0.513634
0.263501
-0.00187896
0.222572
0.510373
0.342987
0.122469
0.32406
0.516836
0.25484
0.0202941
0.26764
0.500238
0.27666
0.0970274
0.339574
0.454185
0.119263
-0.0853522
0.382479
0.242919
-0.257646
-0.221764
0.305172
0.431178
-0.0720822
-0.409663
-0.0503467
0.447444
0.314646
-0.237617
-0.354618
0.136081
0.465492
0.125187
-0.342674
-0.216975
0.278073
0.361282
-0.0613388
-0.310278
-0.0656366
0.21839
0.140516
-0.0865674
-0.16038
-0.129062
-0.0906273
-0.0455619
-0.0847364
-0.230877
-0.216558
0.0797926
0.332053
0.350991
0.352473
0.303438
-0.031058
-0.317906
-0.0757522
0.406127
0.550945
0.488914
0.584179
0.517106
-0.0193203
-0.416227
-0.0856848
0.480379
0.596506
0.499412
0.599422
0.524073
-0.025603
-0.398359
-0.044896
0.487024
0.571191
0.506958
0.611122
0.446077
-0.124729
0.333096
0.599469
0.415875
0.00996896
0.0530864
0.466336
0.567989
0.202534
-0.046651
0.200689
0.555385
0.47512
0.0879275
-0.0150674
0.31758
0.575646
0.367983
0.0201525
0.0609934
0.409605
0.522227
0.253511
0.0495551
0.186355
0.385935
0.352505
0.219596
0.189878
0.200118
0.198579
0.24735
0.273383
0.167109
0.0955619
0.23505
0.421124
0.48491
0.500389
0.411149
0.107223
-0.0805778
0.170052
0.487587
0.39277
0.194655
0.36208
0.516827
0.200903
-0.100091
0.156948
0.519505
0.405333
0.182961
0.356343
0.515172
0.196416
-0.100908
0.153545
0.508295
0.42837
0.259403
0.398973
0.469592
0.18694
0.502823
0.567113
0.530886
0.429377
0.445872
0.536598
0.560126
0.523408
0.503084
0.510195
0.529085
0.547566
0.538006
0.499447
0.494506
0.552015
0.580007
0.51399
0.460749
0.53003
0.607329
0.541685
0.448858
0.504178
0.60686
0.557084
0.444035
0.469454
0.565981
0.568634
0.502056
0.485568
0.526501
0.564758
0.520893
0.368578
0.28745
0.425359
0.540944
0.40055
0.306895
0.521881
0.611016
0.170985
-0.254451
0.00212362
0.514178
0.571754
0.425444
0.547304
0.575466
0.1017
-0.313491
-0.0307658
0.499347
0.578122
0.443167
0.540579
0.547633
0.121616
-0.247429
-0.0291178
0.435156
0.583575
0.0559319
0.0614547
0.290893
0.486783
0.405909
0.125525
0.0529979
0.33728
0.553911
0.344489
0.0361512
0.126416
0.466712
0.510195
0.210702
0.0642182
0.262233
0.443353
0.363171
0.240264
0.246598
0.245771
0.211832
0.304499
0.437334
0.323061
0.0744793
0.106592
0.396091
0.479451
0.206712
0.0071505
0.211806
0.541557
0.482483
0.0495776
-0.146812
0.176446
0.480241
0.311477
0.105754
0.335528
0.549796
0.188034
-0.26011
-0.0494102
0.452698
0.504034
0.321732
0.426006
0.516197
0.144206
-0.230295
0.00986798
0.480188
0.529515
0.385684
0.485527
0.526776
0.147488
-0.233156
-0.0704193
0.397308
0.568118
-0.275514
-0.232654
0.143284
0.441412
0.278127
-0.184327
-0.312454
0.0949685
0.41883
0.142056
-0.304405
-0.221851
0.238479
0.344802
-0.0317751
-0.269179
-0.0589685
0.194327
0.152966
0.0205961
-0.00898921
-0.0652345
-0.122182
0.0437041
0.275356
0.133088
-0.249843
-0.253663
0.173092
0.349749
-0.0426405
-0.40271
-0.150375
0.366816
0.381596
-0.11152
-0.312532
0.106442
0.433638
0.108682
-0.291289
-0.053652
0.433423
0.42335
0.140002
0.21271
0.398783
0.161044
-0.165552
0.00550629
0.404637
0.4468
0.299592
0.40044
0.47567
0.149031
-0.146234
0.0776701
0.454984
0.453433
0.257832
0.301395
0.470514
0.365804
0.0468534
0.116584
0.385712
0.580956
0.464332
0.134673
0.025337
0.305516
0.561276
0.388586
0.0451089
0.0588495
0.387873
0.506632
0.256592
0.066093
0.193025
0.369282
0.34947
0.27917
0.281741
0.223037
0.136532
0.252453
0.46933
0.393915
0.0833579
0.0433748
0.373652
0.546801
0.262776
-0.0415035
0.110395
0.492433
0.524872
0.185725
0.0546748
0.365596
0.580966
0.277848
-0.0892023
0.0681649
0.490296
0.591386
0.465102
0.491888
0.477964
0.135413
-0.164085
0.028323
0.440412
0.568512
0.518054
0.586205
0.505406
0.0432861
-0.28191
-0.00827592
0.46607
0.588933
0.478465
0.491471
0.537695
0.359038
0.44287
0.456688
0.455514
0.473843
0.523622
0.519699
0.466983
0.484782
0.583051
0.597775
0.482423
0.431137
0.54825
0.636649
0.529914
0.419561
0.504167
0.625526
0.562185
0.441133
0.483432
0.58571
0.561263
0.47675
0.490544
0.554594
0.551103
0.504872
0.503285
0.540368
0.551708
0.528439
0.504644
0.50607
0.516186
0.50666
0.495297
0.513894
0.521616
0.471666
0.4419
0.486149
0.476454
0.371972
0.384132
0.546052
0.546382
0.322864
0.247657
0.452917
0.553055
0.315825
0.13439
0.334059
0.522789
0.33276
0.144349
0.334413
0.554138
0.40579
0.159307
0.217892
0.421851
0.447786
0.371858
0.305272
0.0876496
-0.0228842
0.166466
0.410768
0.377566
0.170522
0.140809
0.290078
0.342136
0.272954
0.288075
0.348366
0.251692
0.139403
0.278835
0.488096
0.367872
0.0573548
0.0753465
0.423025
0.553775
0.247038
-0.0205454
0.170249
0.531464
0.509728
0.134486
-0.0156159
0.297693
0.597594
0.417046
0.0391404
0.0552993
0.42348
0.547464
0.235511
-0.0146177
0.191723
0.56528
0.562372
0.147628
-0.134242
0.0815766
0.426433
0.385276
0.152364
0.256984
0.586697
0.52221
-0.0195415
-0.333178
0.00885439
0.485175
0.529741
0.394686
0.480873
0.533204
0.210428
-0.15431
-0.0832363
0.243826
0.403266
0.21811
0.203859
-0.0230771
-0.186235
-0.0070319
0.265361
0.214075
-0.0693414
-0.149209
0.0120522
0.0896786
0.0356668
0.0726878
0.131241
-0.0318702
-0.204576
-0.00584447
0.326297
0.204583
-0.246589
-0.294688
0.180049
0.433618
0.0408744
-0.386364
-0.163313
0.376248
0.387296
-0.158598
-0.412137
0.0272764
0.4756
0.228469
-0.314597
-0.280434
0.281556
0.482179
0.00966002
-0.395343
-0.110041
0.436419
0.438535
-0.0834957
-0.332527
0.0473532
0.429788
0.21889
-0.186317
-0.0712804
0.405516
0.474972
0.00779871
-0.270167
0.0598971
0.479918
0.433811
0.189493
0.249357
0.438421
0.308428
0.0258072
0.0442402
0.271957
0.342388
0.304902
0.494111
0.399604
0.205992
0.269889
0.477292
0.459073
0.233955
0.156838
0.277779
0.329898
0.274882
0.308968
0.378136
0.252581
0.0834874
0.212842
0.495124
0.443043
0.0959951
0.0170159
0.35809
0.57656
0.307659
-0.0238162
0.11616
0.514905
0.540545
0.146115
-0.0491752
0.264518
0.5918
0.409276
0.00780067
0.0326201
0.451013
0.607272
0.2639
-0.0436451
0.143226
0.519713
0.515699
0.172549
0.0601016
0.371318
0.605948
0.358342
-0.0246713
0.0236695
0.412091
0.572363
0.371269
0.243814
0.407179
0.533779
0.346188
0.102139
0.191227
0.480522
0.558005
0.445687
0.431265
0.476937
0.410089
0.27987
0.654615
0.635775
0.347675
0.305427
0.548715
0.653499
0.479012
0.365942
0.500799
0.630759
0.551095
0.435802
0.485125
0.578223
0.553097
0.481192
0.495543
0.551783
0.550605
0.50949
0.502619
0.5323
0.542243
0.522863
0.50989
0.521619
0.534378
0.527591
0.516039
0.521708
0.534244
0.526388
0.507844
0.507727
0.520523
0.521858
0.516622
0.519105
0.517207
0.501794
0.492249
0.5043
0.522011
0.521852
0.501842
0.472649
0.450369
0.449981
0.458763
0.470546
0.523881
0.589495
0.546211
0.401297
0.31252
0.354477
0.457067
0.503615
0.481097
0.518487
0.603731
0.547453
0.390827
0.0316952
0.441546
0.376428
-0.0437404
-0.133321
0.229026
0.447562
0.206245
-0.0300704
0.173451
0.495818
0.402275
0.0427223
0.0161459
0.382143
0.574512
0.293662
-0.0186289
0.127753
0.511937
0.541442
0.169654
-0.0213428
0.270744
0.593356
0.438559
0.0455756
0.0316423
0.420775
0.602917
0.293012
-0.0190323
0.15835
0.547884
0.536651
0.13429
-0.0364406
0.292818
0.612901
0.428153
0.0352252
0.0535286
0.441277
0.564916
0.213632
-0.0632419
0.173746
0.574053
0.545765
0.142195
-0.0331613
0.260311
0.524209
0.311519
-0.0235843
0.0912383
0.495968
0.581749
0.238349
-0.0111592
0.191581
0.48194
0.38118
0.109134
0.0467591
0.349829
0.237448
-0.184619
-0.26481
0.116382
0.327465
0.00389618
-0.326931
-0.0980896
0.342936
0.264734
-0.231455
-0.340097
0.139242
0.457669
0.0982926
-0.377515
-0.210673
0.349183
0.422665
-0.111521
-0.411493
0.00132827
0.482333
0.272151
-0.300093
-0.331398
0.22947
0.498058
0.0497233
-0.408033
-0.151856
0.420537
0.41452
-0.160516
-0.406291
0.0595577
0.504689
0.232538
-0.317624
-0.267301
0.303518
0.48501
-0.0153183
-0.414315
-0.0868543
0.471345
0.419383
-0.144528
-0.347326
0.101919
0.463598
0.164811
-0.269092
-0.0898464
0.44825
0.510021
-0.00308498
-0.310136
0.0295352
0.438777
0.287742
-0.0972444
0.402941
0.505081
0.450681
0.262964
0.228608
0.421677
0.52036
0.301785
0.0672596
0.203025
0.514275
0.482265
0.127909
0.0155776
0.340084
0.585152
0.341967
-0.0113533
0.092072
0.496586
0.558603
0.172658
-0.0524941
0.242238
0.594314
0.446531
0.0316425
0.00549094
0.410433
0.606583
0.282996
-0.0508609
0.130145
0.542819
0.542956
0.134722
-0.0395424
0.292268
0.603472
0.398274
0.000468159
0.0432674
0.463077
0.603767
0.25518
-0.0318003
0.18198
0.552897
0.499753
0.110053
0.00612089
0.360027
0.616593
0.386438
0.0595986
0.159461
0.513358
0.544801
0.194469
0.022897
0.310007
0.599563
0.447915
0.126687
0.520294
0.34308
0.404304
0.592148
0.608414
0.469003
0.425453
0.518302
0.567529
0.516224
0.482752
0.519005
0.549636
0.528268
0.504327
0.517853
0.535228
0.527648
0.514747
0.520327
0.530513
0.525289
0.514637
0.51719
0.528107
0.527858
0.517257
0.514413
0.523983
0.529733
0.522469
0.514333
0.516122
0.522149
0.522746
0.518795
0.51805
0.52336
0.52584
0.516901
0.506662
0.508993
0.51599
0.517363
0.521699
0.52811
0.519582
0.5007
0.492971
0.502435
0.518231
0.522002
0.511125
0.509629
0.519576
0.510719
0.484528
0.474211
0.491341
0.52176
0.537117
0.522356
0.497118
0.48259
0.272817
-0.176142
-0.0480018
0.436098
0.473605
0.0244153
-0.144983
0.251224
0.579725
0.340081
-0.0495382
0.0452738
0.472244
0.561033
0.187248
-0.0453045
0.232708
0.585864
0.462054
0.0593442
0.0132448
0.398095
0.610872
0.317306
-0.0208532
0.128417
0.531198
0.55399
0.160167
-0.031186
0.281824
0.608668
0.434795
0.0314875
0.0315987
0.434073
0.605109
0.277566
-0.0292369
0.169625
0.561904
0.528826
0.11534
-0.0353984
0.313034
0.613461
0.394032
0.0069126
0.0679365
0.478244
0.583782
0.208825
-0.0630144
0.195225
0.575316
0.482009
0.0831539
0.030396
0.408664
0.609343
0.312505
0.00120982
0.172847
0.530412
0.210113
-0.305793
-0.186559
0.340631
0.365666
-0.181431
-0.406272
0.0659917
0.474948
0.157625
-0.375693
-0.268132
0.312133
0.444059
-0.0788603
-0.421645
-0.0373665
0.470244
0.300152
-0.278808
-0.351692
0.199527
0.50899
0.0894082
-0.398373
-0.18554
0.394458
0.429167
-0.136743
-0.413577
0.034546
0.504653
0.258764
-0.315677
-0.31461
0.259648
0.501388
0.0294729
-0.411472
-0.124871
0.441674
0.399907
-0.185425
-0.397902
0.0925028
0.510603
0.200061
-0.33786
-0.242682
0.336225
0.477354
-0.0485832
-0.412434
-0.0368824
0.492552
0.354069
-0.210878
-0.286907
0.244131
0.509742
0.064899
-0.371264
-0.0861833
0.449599
0.445506
0.178778
0.243597
0.538007
0.549013
0.21419
0.0610333
0.341937
0.596035
0.383591
0.022071
0.0885451
0.482809
0.571373
0.201389
-0.0448831
0.224843
0.58577
0.46435
0.0495899
-0.00426815
0.389171
0.610504
0.310251
-0.039015
0.112986
0.527972
0.553364
0.149381
-0.0487188
0.270407
0.605536
0.430635
0.0217643
0.0231225
0.432997
0.605035
0.266568
-0.0509738
0.151111
0.555107
0.527808
0.115054
-0.0320496
0.317496
0.611089
0.386271
0.00178542
0.067508
0.477566
0.581655
0.221642
-0.0230547
0.239088
0.597185
0.48498
0.0737221
0.015565
0.402686
0.596172
0.259132
-0.0709847
0.148946
0.556083
0.437049
0.58281
0.550924
0.451015
0.462769
0.550063
0.569835
0.511317
0.480389
0.510611
0.540367
0.532617
0.515619
0.515943
0.522784
0.523009
0.521665
0.523968
0.523666
0.519531
0.518784
0.523185
0.525177
0.520672
0.516607
0.519095
0.524002
0.523924
0.519816
0.51817
0.520536
0.522478
0.520577
0.517275
0.517834
0.522566
0.524722
0.52064
0.515974
0.516271
0.519008
0.519325
0.517976
0.519123
0.52239
0.523062
0.519107
0.513062
0.509672
0.512435
0.520895
0.532647
0.535361
0.517206
0.498778
0.497241
0.492556
0.488442
0.515115
0.543642
0.518833
0.474371
0.493697
0.55603
0.101562
0.535552
0.373868
-0.0859299
-0.0767456
0.384524
0.558269
0.188974
-0.102559
0.158142
0.557166
0.472443
0.0571491
-0.0207211
0.363066
0.606759
0.333213
-0.0208308
0.103802
0.512979
0.565218
0.178906
-0.0379822
0.256477
0.600453
0.45279
0.0449545
0.0186001
0.416122
0.612337
0.297384
-0.0340275
0.13928
0.544207
0.543529
0.139345
-0.0311034
0.301254
0.614355
0.416157
0.0187696
0.0478322
0.457398
0.601642
0.253182
-0.0374937
0.187425
0.569279
0.503913
0.0998496
0.00421593
0.373359
0.615944
0.33364
-0.0273065
0.108598
0.517929
0.555965
0.196489
0.0469532
0.353431
0.615809
0.422442
0.122683
0.0302629
0.480751
0.253638
-0.316894
-0.321523
0.234377
0.437981
-0.0453279
-0.429311
-0.090073
0.43293
0.304224
-0.269183
-0.373148
0.161711
0.496413
0.106226
-0.391776
-0.211891