# vtk DataFile Version 3.0
PFC-RG simulation results
ASCII
DATASET STRUCTURED_POINTS
DIMENSIONS 64 64 1
ORIGIN 0 0 0
SPACING 1 1 1
POINT_DATA 4096
SCALARS psi double
LOOKUP_TABLE default
0.482158
0.542545
0.510139
0.432142
0.466843
0.544413
0.530603
0.483704
0.51189
0.555548
0.521446
0.474065
0.527906
0.600236
0.541511
0.431748
0.476701
0.621399
0.60098
0.438611
0.4185
0.581592
0.635802
0.496725
0.426148
0.535196
0.618568
0.537212
0.438092
0.476185
0.575252
0.585006
0.51958
0.493917
0.519011
0.525345
0.497307
0.471891
0.468569
0.478605
0.513846
0.556728
0.452905
0.176717
0.0829067
0.348118
0.580162
0.521604
0.482966
0.614437
0.489743
-0.0375867
-0.311368
0.0853773
0.572998
0.598992
0.488969
0.579705
0.498669
0.0210208
-0.291803
1.26399e-05
0.48016
0.620015
-0.0135825
0.104486
0.364535
0.531367
0.417814
0.124923
0.0423682
0.320923
0.559543
0.374972
0.0357532
0.0662466
0.423187
0.542753
0.235129
-0.0174694
0.171721
0.485744
0.428595
0.138225
0.0945447
0.322356
0.425646
0.312964
0.248062
0.272415
0.233179
0.202903
0.339459
0.467964
0.326663
0.0983833
0.172164
0.458345
0.473973
0.170445
0.0639673
0.36901
0.601981
0.367779
0.0463259
0.157319
0.443773
0.388264
0.203293
0.309902
0.460248
0.331254
0.22613
0.405716
0.477731
0.168115
-0.0308916
0.248629
0.513554
0.347979
0.176384
0.366852
0.51215
0.267287
0.0259397
0.175041
0.442175
0.438987
-0.347434
-0.243677
0.143894
0.437243
0.258823
-0.216611
-0.332275
0.111535
0.454836
0.152124
-0.333329
-0.242909
0.275467
0.401916
-0.0504053
-0.357067
-0.0522876
0.357413
0.234167
-0.175147
-0.217182
0.110134
0.265448
0.101304
-0.0385958
-0.0392959
-0.0519208
-0.024038
0.161159
0.254015
-0.00817447
-0.303588
-0.136873
0.298302
0.330024
-0.0869017
-0.236762
0.178006
0.476421
0.111316
-0.352695
-0.156831
0.388108
0.544945
0.417603
0.441
0.37933
-0.0315846
-0.290507
0.0371013
0.488248
0.531438
0.44352
0.551051
0.468626
-0.0361981
-0.346384
0.00142288
0.503246
0.580217
0.43597
0.437516
0.445449
0.224316
-0.00759837
0.0367991
0.293167
0.50783
0.408518
0.0878809
0.00922885
0.332596
0.581225
0.353445
0.00208677
0.0869383
0.472998
0.549317
0.208491
0.00577008
0.253796
0.544382
0.422718
0.114026
0.109556
0.370542
0.46953
0.317975
0.210941
0.234525
0.245209
0.261204
0.373574
0.405318
0.184186
-0.0216045
0.147777
0.503046
0.508518
0.130508
-0.0434756
0.270987
0.521079
0.236411
-0.105513
0.0923089
0.489754
0.49633
0.349049
0.463073
0.485566
0.0797051
-0.215157
0.0900004
0.513606
0.498419
0.364356
0.497492
0.498725
0.0639202
-0.229904
0.0832511
0.496203
0.459159
0.276545
0.363741
0.493262
0.356425
0.421795
0.506024
0.50827
0.451197
0.467936
0.523757
0.533856
0.521289
0.52386
0.522755
0.517168
0.525273
0.532555
0.519493
0.510501
0.531021
0.54758
0.52464
0.493308
0.516532
0.56593
0.549344
0.477252
0.477714
0.57326
0.593373
0.483381
0.429154
0.539592
0.61755
0.506861
0.387735
0.468276
0.627284
0.581821
0.323769
0.197309
0.405382
0.612593
0.513431
0.400043
0.535174
0.540647
0.140664
-0.127733
0.186888
0.573741
0.494621
0.327108
0.478741
0.519679
0.101786
-0.198857
0.115896
0.529303
0.485419
0.345238
0.492988
0.501741
0.0690924
-0.217635
0.087351
0.491222
0.515399
0.270987
0.543885
0.371435
0.00275097
0.0716619
0.482073
0.57866
0.218771
-0.0279836
0.216298
0.569852
0.483933
0.0883005
-0.00717398
0.34357
0.590513
0.343776
-0.0127923
0.0726593
0.463814
0.551303
0.20351
-0.0447179
0.175917
0.514973
0.458826
0.123396
0.0189749
0.264869
0.468173
0.384302
0.215985
0.185984
0.249559
0.253791
0.172374
0.170299
0.353953
0.49047
0.417942
0.412587
0.58153
0.481545
-0.0476329
-0.346439
0.0378594
0.536146
0.564484
0.459335
0.585495
0.515425
-0.0228096
-0.365251
0.00349888
0.516648
0.561259
0.463533
0.584722
0.505167
-0.000542121
-0.262483
0.0985742
0.418148
0.2601
-0.0542936
0.393787
0.198108
-0.311736
-0.240536
0.315362
0.449396
-0.0622336
-0.416111
-0.0584373
0.457024
0.330172
-0.24116
-0.366149
0.148461
0.493793
0.127948
-0.370501
-0.222527
0.330605
0.420466
-0.0794824
-0.381313
-0.035385
0.399481
0.264003
-0.193417
-0.283531
0.0729724
0.330003
0.183097
-0.0952878
-0.182593
-0.0616502
0.0961414
0.165653
0.227095
0.356564
0.325345
0.0421939
-0.0562076
0.255158
0.479194
0.27143
0.0989033
0.330112
0.482801
0.180147
-0.0456223
0.240622
0.524381
0.339755
0.146193
0.359986
0.499446
0.177777
-0.0612159
0.217546
0.495813
0.344991
0.234063
0.448419
0.401853
-0.100084
0.117487
0.507968
0.373621
-0.0156515
0.0453191
0.4697
0.570711
0.194277
-0.0610742
0.202279
0.576042
0.486022
0.0797107
-0.00438303
0.365783
0.610093
0.348494
0.000798852
0.115099
0.503913
0.554139
0.201859
0.0142756
0.273621
0.55857
0.436218
0.125922
0.0965252
0.354631
0.51178
0.369792
0.128357
0.0521241
0.207848
0.420522
0.472739
0.438834
0.472789
0.350593
-0.07128
-0.292545
0.0653686
0.528299
0.586066
0.511329
0.609799
0.489863
-0.0686181
-0.399781
-0.0109061
0.530804
0.608642
0.518926
0.61742
0.506185
-0.0500805
-0.38806
-0.0227931
0.488977
0.56982
0.518294
0.62618
0.49427
0.0200074
0.470349
0.576078
0.541381
0.451469
0.473551
0.541324
0.541028
0.505925
0.504967
0.523155
0.523693
0.514703
0.516972
0.525516
0.524556
0.515796
0.514742
0.527843
0.53565
0.5205
0.501867
0.515837
0.549297
0.543715
0.49911
0.490757
0.544738
0.569491
0.520615
0.491672
0.526948
0.526951
0.469345
0.498485
0.574639
0.477427
0.318713
0.379653
0.459783
0.247822
0.0668067
0.280435
0.510642
0.357982
0.195635
0.390305
0.514489
0.203384
-0.0370943
0.232318
0.520135
0.348073
0.145487
0.345694
0.514483
0.245842
0.00820152
0.240943
0.508825
0.358565
0.147678
0.287897
0.496309
0.454891
0.323425
0.165661
0.288758
0.518494
0.473712
0.142496
0.0174093
0.330801
0.604104
0.382632
-0.00122499
0.0618652
0.475756
0.582501
0.209017
-0.0572223
0.201448
0.575899
0.474698
0.0549995
-0.0260139
0.357418
0.59923
0.313118
-0.0522971
0.0797143
0.497641
0.533603
0.143944
-0.0378768
0.251864
0.527392
0.433948
0.249012
0.173809
0.0328348
-0.0876589
0.124868
0.480497
0.557713
0.499481
0.572305
0.462302
-0.0384918
-0.34463
0.0112364
0.516243
0.577462
0.478067
0.585935
0.513902
-0.0169761
-0.379479
-0.0356961
0.507709
0.605272
0.490313
0.564558
0.539793
0.10725
-0.302677
-0.162421
0.330396
0.616992
-0.0920081
-0.273281
0.0222726
0.433248
0.348673
-0.178754
-0.369992
0.0978856
0.503435
0.191504
-0.354058
-0.264549
0.321795
0.474723
-0.0486408
-0.419932
-0.0543842
0.468366
0.323212
-0.258432
-0.358485
0.17778
0.49902
0.0955497
-0.390144
-0.188189
0.370008
0.386533
-0.15017
-0.37089
0.0443168
0.414748
0.258187
-0.0377047
-0.109474
-0.114962
-0.0851564
0.161717
0.425422
0.402565
0.336183
0.487914
0.482015
0.0583651
-0.22346
0.0946214
0.511396
0.474508
0.325174
0.47413
0.519526
0.10668
-0.212784
0.0810128
0.510937
0.476392
0.276506
0.388876
0.527998
0.261675
-0.125272
-0.0973706
0.286121
0.500986
-0.0701984
-0.0869295
0.227702
0.555655
0.494363
0.111766
-0.0306055
0.30485
0.603972
0.390155
0.00336257
0.0645528
0.479204
0.589935
0.225076
-0.0332467
0.223285
0.587834
0.486406
0.0837599
0.0188014
0.393497
0.613772
0.331419
0.000171602
0.148953
0.532114
0.528161
0.155297
0.0270039
0.321929
0.530974
0.368284
0.184203
0.223338
0.310526
0.384659
0.490322
0.387155
-0.0184335
-0.215837
0.137636
0.536734
0.493569
0.36117
0.507724
0.5165
0.0645302
-0.262336
0.0557036
0.51819
0.522331
0.377043
0.507201
0.532516
0.0841586
-0.297247
-0.0335484
0.478177
0.580557
0.377405
0.338539
0.479666
0.475736
0.313999
0.425051
0.503235
0.493825
0.495915
0.518158
0.518195
0.511625
0.517954
0.523638
0.522195
0.520218
0.517731
0.515525
0.52041
0.527973
0.524104
0.512981
0.513625
0.526733
0.531481
0.520681
0.511881
0.51715
0.529322
0.53311
0.519102
0.497275
0.505976
0.551171
0.54834
0.446714
0.382457
0.488172
0.59866
0.543775
0.506561
0.583566
0.426692
-0.0733634
-0.321997
0.0642712
0.541204
0.563931
0.454816
0.575853
0.522421
0.00519127
-0.349844
-0.0070544
0.512195
0.567702
0.44206
0.55286
0.533984
0.0554551
-0.311856
-0.0239185
0.459588
0.520884
0.3754
0.44653
0.577792
0.494256
0.440855
0.5953
0.365711
-0.0233746
0.0292448
0.457279
0.601016
0.2493
-0.041954
0.180787
0.566642
0.506118
0.0885652
-0.0297798
0.339761
0.611882
0.351303
-0.031423
0.0704385
0.494235
0.565899
0.172414
-0.0623536
0.228204
0.57986
0.440282
0.0331199
-0.0108927
0.366178
0.577498
0.294855
-0.063953
0.0346432
0.436882
0.51511
0.158869
-0.032194
0.249104
0.502154
0.340256
0.185062
0.394971
0.513265
0.172028
-0.0977633
0.179305
0.517686
0.395172
0.205306
0.389921
0.519114
0.177864
-0.119217
0.142291
0.504118
0.426843
0.264176
0.421792
0.484436
0.123945
-0.117976
0.150651
0.424748
0.316249
0.235242
0.498458
0.199846
-0.336874
-0.279944
0.294899
0.488017
-0.00334543
-0.410772
-0.0963371
0.449162
0.368046
-0.215145
-0.37994
0.136578
0.515884
0.153762
-0.375733
-0.231294
0.357192
0.455078
-0.0910275
-0.414766
-0.00877362
0.48122
0.2884
-0.274753
-0.332444
0.184955
0.465167
0.092626
-0.329823
-0.138339
0.365147
0.373153
-0.168284
-0.446667
-0.0225188
0.524601
0.601029
0.498712
0.593606
0.507868
-0.0390077
-0.411064
-0.0548338
0.509088
0.61521
0.515919
0.609338
0.52842
-0.0193009
-0.402373
-0.0626294
0.48713
0.59875
0.524705
0.617587
0.498692
-0.0208582
-0.270518
0.078064
0.326046
0.0860487
0.114737
0.502049
0.403765
0.0441294
0.0747178
0.463411
0.584521
0.239774
-0.0346781
0.189582
0.567014
0.510173
0.108034
-0.00445401
0.353827
0.616766
0.366582
0.00146743
0.103187
0.510529
0.577274
0.200404
-0.020916
0.260484
0.598703
0.468369
0.0834876
0.0411774
0.392785
0.593573
0.354246
0.064053
0.172445
0.503727
0.514688
0.12555
-0.0963595
0.193732
0.503522
0.342421
0.113358
0.302043
0.509352
0.268135
0.0151549
0.242895
0.514576
0.32305
0.08508
0.289836
0.516262
0.289392
0.0477851
0.268651
0.508422
0.292512
0.0605184
0.26685
0.478174
0.301133
0.18841
0.421657
0.454489
0.0825809
0.210384
0.461857
0.547448
0.523638
0.530947
0.538461
0.509813
0.499058
0.523642
0.531485
0.511967
0.506476
0.523306
0.530557
0.517849
0.508794
0.517891
0.5302
0.526423
0.511445
0.507532
0.522171
0.533982
0.522202
0.50315
0.509768
0.53475
0.534745
0.511778
0.519937
0.550578
0.521309
0.444512
0.452424
0.534542
0.522024
0.475187
0.555224
0.484669
0.00510698
-0.356696
-0.0466592
0.494973
0.607497
0.504667
0.593828
0.529742
-0.00323089
-0.396812
-0.0665632
0.496629
0.611533
0.511399
0.604468
0.535351
-0.000703517
-0.392591
-0.0774921
0.465278
0.599259
0.530517
0.600063
0.559054
0.280779
0.300742
0.171129
0.25209
0.491212
0.495241
0.15853
-0.0174443
0.286156
0.600789
0.400804
-0.00592971
0.0382779
0.465172
0.588027
0.209715
-0.0647873
0.201051
0.58264
0.472474
0.0435674
-0.0268209
0.371652
0.608715
0.308034
-0.0590216
0.0835009
0.508529
0.546195
0.150167
-0.0394462
0.255804
0.518256
0.332541
0.0614965
0.132469
0.339029
0.4187
0.486446
0.458726
0.119258
-0.152573
0.101956
0.489731
0.451888
0.283145
0.430302
0.525169
0.160714
-0.158996
0.107884
0.507323
0.442888
0.246915
0.399441
0.526374
0.195843
-0.119547
0.119064
0.507242
0.45543
0.19936
0.229174
0.435814
0.483296
0.265732
-0.0477957
0.00480783
0.330185
0.341791
-0.116323
-0.352081
0.0670147
0.493924
0.21492
-0.341472
-0.275278
0.313773
0.47964
-0.0446032
-0.421016
-0.0502463
0.476788
0.323533
-0.265421
-0.357409
0.191503
0.51292
0.099423
-0.396877
-0.195979
0.381649
0.42388
-0.129406
-0.405375
0.000408418
0.423444
0.264805
-0.112618
-0.183593
-0.0956862
-0.0632561
0.123857
0.43176
0.496093
0.42301
0.525356
0.507116
0.0559826
-0.296121
0.00232411
0.499004
0.551801
0.417584
0.534053
0.540318
0.0643602
-0.327069
-0.0332773
0.494497
0.577355
0.434869
0.52494
0.5613
0.15017
-0.304362
-0.207795
0.284108
0.586194
0.146455
0.114893
0.263943
0.48639
0.486812
0.182314
0.0190563
0.300963
0.596819
0.406871
0.0212835
0.0679957
0.478135
0.591863
0.227221
-0.0310505
0.227749
0.590679
0.484494
0.0826506
0.0228154
0.397876
0.615116
0.333652
-0.000477476
0.140273
0.532767
0.552943
0.164573
-0.025674
0.260518
0.563395
0.474158
0.216573
0.0835446
-0.0255273
-0.115381
0.0790398
0.439865
0.540957
0.47404
0.559852
0.518773
0.0492596
-0.312264
-0.0117445
0.494631
0.552401
0.412573
0.525005
0.54155
0.0833727
-0.298974
-0.0121192
0.49348
0.545267
0.380059
0.473888
0.5425
0.185711
-0.20259
-0.0736825
0.347869
0.518344
-0.0047573
0.380087
0.575238
0.517962
0.487939
0.530304
0.53595
0.509946
0.510781
0.528201
0.530177
0.520966
0.515169
0.51596
0.523426
0.529554
0.521452
0.507684
0.512221
0.531682
0.533318
0.511253
0.501267
0.520232
0.536444
0.524722
0.504717
0.498718
0.507607
0.525765
0.523969
0.470838
0.430053
0.488972
0.536818
0.421407
0.308918
0.416437
0.482372
0.189206
-0.0859769
0.139751
0.499945
0.442025
0.260322
0.412866
0.53088
0.176709
-0.163554
0.0842134
0.49992
0.468666
0.28679
0.429414
0.530347
0.159148
-0.191951
0.0473855
0.476477
0.496824
0.342123
0.430291
0.494727
0.239774
0.00171313
0.462876
0.451207
0.0482843
0.0141454
0.419374
0.581435
0.239212
-0.0454603
0.186181
0.567981
0.495282
0.0785709
-0.0266685
0.348353
0.610674
0.339126
-0.0401701
0.0751861
0.502343
0.558464
0.151258
-0.0726377
0.238659
0.585273
0.418451
0.00396797
-0.0197659
0.370363
0.581853
0.302018
-0.0843517
-0.0627484
0.330767
0.59382
0.504335
0.418545
0.55969
0.518753
0.0105385
-0.390978
-0.0911393
0.479295
0.618377
0.509829
0.593455
0.552306
0.0325637
-0.391673
-0.0940959
0.477675
0.610878
0.502783
0.58984
0.544124
0.0315724
-0.36262
-0.0612956
0.459578
0.555528
0.472828
0.581205
0.508309
0.0206272
0.299232
0.540525
0.260195
-0.314772
-0.306259
0.267201
0.471488
-0.0195874
-0.415355
-0.084982
0.451645
0.349634
-0.230943
-0.374581
0.147629
0.510655
0.137152
-0.381374
-0.221033
0.36236
0.438309
-0.113465
-0.414103
0.00809979
0.475815
0.252441
-0.300707
-0.328193
0.189618
0.457858
0.0900207
-0.367057
-0.272247
0.226078
0.434695
0.148068
-0.0417094
0.243946
0.511964
0.293613
0.0200566
0.22206
0.508673
0.322998
0.0396399
0.222182
0.508803
0.345298
0.0883159
0.270819
0.515438
0.294365
0.010631
0.210571
0.503587
0.356155
0.14185
0.33041
0.500872
0.218561
-0.0254269
0.223836
0.45075
0.193101
0.494296
0.62322
0.39898
-0.00317284
0.039779
0.467071
0.591671
0.223663
-0.0481627
0.19753
0.573167
0.497952
0.0967141
0.000814204
0.36154
0.611633
0.356819
0.00245369
0.111661
0.509762
0.563002
0.190788
-0.0111592
0.271934
0.584391
0.441343
0.0845383
0.0642619
0.386747
0.556491
0.341697
0.0814832
0.173301
0.491262
0.48051
-0.0223704
-0.372206
-0.0511792
0.484049
0.594736
0.483371
0.578359
0.561119
0.0496121
-0.401431
-0.127777
0.45954
0.620097
0.51412
0.597038
0.558601
0.0307564
-0.407416
-0.112176
0.469191
0.617473
0.524652
0.60888
0.533316
0.000344985
-0.37504
-0.0514649
0.457454
0.520758
0.162736
0.379398
0.524236
0.496407
0.485467
0.529164
0.528585
0.499377
0.50579
0.524049
0.517871
0.510771
0.523063
0.529926
0.517431
0.510185
0.522297
0.533317
0.52416
0.508549
0.510642
0.529926
0.537493
0.514218
0.490156
0.510748
0.552751
0.536559
0.474086
0.477513
0.549526
0.556065
0.513492
0.56638
0.555619
0.234538
-0.0626863
0.131247
0.496817
0.466828
0.270531
0.394365
0.5398
0.23172
-0.116119
0.0959273
0.497264
0.445308
0.218017
0.357565
0.532468
0.238677
-0.0919292
0.13003
0.504923
0.416372
0.182095
0.328634
0.514112
0.264929
-0.0216004
0.168
0.51188
0.513831
-0.265744
-0.0405511
0.347881
0.557379
0.416587
0.0859218
-0.00134354
0.31554
0.582404
0.367163
-0.0100485
0.0540484
0.467664
0.570811
0.196494
-0.0574763
0.212066
0.574092
0.452453
0.0412777
-0.00938288
0.377481
0.584196
0.275441
-0.064267
0.100373
0.496403
0.472728
0.0723013
-0.0440099
0.27093
0.421786
0.177908
0.077275
0.340515
0.500665
0.433568
0.494169
0.531511
0.144508
-0.272654
-0.0709436
0.446305
0.570208
0.43464
0.52942
0.573745
0.121604
-0.328748
-0.0891311
0.463511
0.587328
0.453397
0.548405
0.563982
0.0860407
-0.353324
-0.0950437
0.468904
0.61754
0.475264
0.491679
0.523157
0.265241
-0.096916
-0.0310339
0.252901
0.435176
0.225749
-0.220049
-0.318508
0.127285
0.479404
0.16782
-0.348352
-0.252895
0.312417
0.449216
-0.0628541
-0.410201
-0.0455254
0.450059
0.292849
-0.265473
-0.346232
0.169034
0.45807
0.0582655
-0.396063
-0.192161
0.316562
0.284803
-0.221796
-0.353465
0.0393363
0.178757
-0.189572
-0.314689
0.13117
0.490931
0.453021
0.46164
0.50639
0.146755
-0.287471
-0.106268
0.424464
0.552829
0.383989
0.461812
0.551086
0.162727
-0.268526
-0.0555039
0.457396
0.539608
0.370341
0.468987
0.545812
0.149448
-0.249422
-0.0187433
0.466365
0.52406
0.328804
0.365639
0.471201
0.269248
0.372941
0.368467
0.45482
0.499573
0.371827
0.125819
0.0786201
0.362953
0.589351
0.379324
0.0293507
0.0924751
0.477683
0.573728
0.224927
-0.0175306
0.224351
0.5672
0.474072
0.0922249
0.016459
0.360489
0.580611
0.323115
-0.00345896
0.123078
0.480066
0.450736
0.0801199
0.0150423
0.329986
0.389991
0.0548316
-0.0201928
0.325612
0.400857
0.0719882
0.0602019
0.427823
0.484618
0.257478
0.333235
0.53097
0.265867
-0.155061
-0.0159322
0.444391
0.505006
0.307725
0.404405
0.538234
0.201369
-0.193971
0.00627315
0.464319
0.504884
0.332217
0.437442
0.519872
0.153021
-0.213275
-0.0100069
0.435726
0.533612
0.31688
0.477186
0.51594
0.426835
0.430199
0.524243
0.550035
0.506133
0.500022
0.530606
0.534721
0.514147
0.511981
0.532083
0.540802
0.523577
0.504666
0.519375
0.549628
0.539524
0.49637
0.501189
0.558933
0.554723
0.477023
0.476549
0.568714
0.542878
0.38425
0.389404
0.573218
0.565582
0.344217
0.362705
0.591913
0.400085
-0.151379
-0.185262
0.367175
0.65399
0.525539
0.533227
0.585809
0.189335
-0.307743
-0.156117
0.41607
0.624894
0.509549
0.56891
0.581738
0.119074
-0.342576
-0.117692
0.442542
0.60208
0.492265
0.565181
0.543586
0.084025
-0.284852
-0.0179686
0.451983
0.536538
-0.13408
0.227343
0.273338
0.0281043
0.0699992
0.418308
0.495533
0.159241
-0.0440953
0.21438
0.534583
0.425325
0.0687535
0.0260123
0.361075
0.546919
0.294801
0.0147562
0.146232
0.459895
0.454195
0.1748
0.0833958
0.26388
0.376014
0.288677
0.200364
0.174486
0.128904
0.145413
0.250059
0.222047
0.0553425
0.127817
0.434796
0.408755
0.0192932
-0.0202433
0.350662
0.407532
0.125851
0.152389
0.444022
0.406772
0.148893
0.243278
0.499907
0.340097
0.0253464
0.165851
0.494621
0.401104
0.140061
0.277628
0.514653
0.300246
-0.0132186
0.155571
0.475069
0.392119
0.209189
0.359151
0.462936
0.162594
-0.129906
0.240763
0.216243
-0.161832
-0.160697
0.260051
0.356461
-0.0833838
-0.360054
-0.0275403
0.395548
0.253777
-0.224822
-0.29606
0.139771
0.398622
0.082234
-0.298012
-0.154055
0.252745
0.271437
-0.0842477
-0.229385
-0.0166093
0.137208
0.0382905
-0.0677307
-0.0760264
-0.119372
-0.140257
-0.0423307
-0.0334402
-0.214995
-0.212559
0.152853
0.425693
0.354024
0.324167
0.400564
0.146389
-0.269263
-0.19077
0.307352
0.557107
0.4983
0.557669
0.558665
0.0901242
-0.391332
-0.182335
0.402372
0.597098
0.487333
0.564881
0.572278
0.0792444
-0.399749
-0.166553
0.409793
0.586262
0.486956
0.534617
0.45862
-0.00798095
0.332124
0.574767
0.494729
0.124142
0.0933745
0.445403
0.55538
0.229557
0.0084823
0.240887
0.549459
0.461083
0.121512
0.0519243
0.346067
0.546411
0.34269
0.0591835
0.136817
0.427493
0.455709
0.197731
0.0887422
0.248674
0.356249
0.271074
0.20771
0.240378
0.211
0.161806
0.237734
0.290092
0.150349
0.0666367
0.264035
0.483812
0.501261
0.507264
0.51349
0.258031
-0.0453075
0.0761106
0.433646
0.457186
0.254605
0.344641
0.522062
0.264485
-0.0953278
0.0741196
0.479065
0.448789
0.194666
0.313273
0.535832
0.286073
-0.07455
0.100583
0.4842
0.419065
0.152475
0.253313
0.473295
0.326502
0.400021
0.593832
0.601512
0.345192
0.275329
0.496641
0.635297
0.520284
0.394404
0.449742
0.577113
0.596454
0.49399
0.427435
0.504167
0.620033
0.578322
0.428021
0.425528
0.589491
0.636641
0.466842
0.376531
0.518315
0.634644
0.529557
0.40524
0.466833
0.571359
0.556768
0.496376
0.492084
0.518256
0.545898
0.522895
0.379172
0.262683
0.386333
0.553859
0.450011
0.307854
0.478085
0.636645
0.289575
-0.192361
-0.0687269
0.440151
0.577799
0.420104
0.500458
0.608017
0.233833
-0.244272
-0.0900477
0.438758
0.581576
0.444491
0.537751
0.602575
0.18995
-0.251412
-0.0545366
0.473896
0.62943
-0.051528
0.214448
0.373193
0.196853
0.0453645
0.139011
0.295215
0.320351
0.237006
0.159992
0.182371
0.286439
0.321618
0.237896
0.199286
0.297172
0.331723
0.201436
0.156858
0.334192
0.426716
0.214452
0.0491299
0.249087
0.492992
0.3438
0.031373
0.077605
0.40509
0.488076
0.205713
0.0172034
0.232048
0.555276
0.487771
0.0468937
-0.171014
0.136425
0.456478
0.309801
0.0933222
0.315291
0.583368
0.268717
-0.259566
-0.166204
0.371089
0.532176
0.331142
0.361674
0.517764
0.261254
-0.171212
-0.0857178
0.365064
0.497524
0.376286
0.454764
0.513831
0.176686
-0.160939
0.0299699
0.416959
0.413891
-0.169648
0.120917
0.31009
0.159952
-0.0251731
-0.0109975
0.104949
0.148821
0.0789171
-0.0251416
-0.0296498
0.0760554
0.114094
0.0202214
-0.0135261
0.101389
0.11559
-0.0671525
-0.113438
0.137295
0.26445
-0.028524
-0.2818
-0.030908
0.333875
0.173623
-0.278346
-0.2757
0.188746
0.359936
-0.0524854
-0.399634
-0.124177
0.388786
0.38967
-0.0975994
-0.289249
0.121458
0.439612
0.118312
-0.288233
-0.0662981
0.433363
0.434843
0.0941353
0.117627
0.391623
0.264831
-0.13009
-0.106905
0.306469
0.465471
0.295312
0.284763
0.403073
0.224775
-0.0588935
0.020664
0.278092
0.304364
0.245824
0.362074
0.380694
0.0553814
0.285218
0.415701
0.501543
0.448305
0.366528
0.327842
0.337464
0.377627
0.387266
0.322079
0.271499
0.32172
0.366388
0.314127
0.281112
0.355856
0.365881
0.224592
0.179242
0.369949
0.479181
0.255959
0.0396005
0.215697
0.513265
0.416577
0.064276
0.0367819
0.389046
0.547938
0.246787
-0.0435512
0.125826
0.498051
0.520489
0.202937
0.0968933
0.397799
0.591332
0.290717
-0.0728267
0.0661039
0.479694
0.587445
0.442145
0.459361
0.519508
0.2484
-0.128985
-0.0764214
0.341127
0.576646
0.523593
0.525021
0.535292
0.247792
-0.0926287
-0.032107
0.280567
0.447649
0.478995
0.527679
0.43906
0.136997
0.531762
0.356207
0.353795
0.54005
0.634461
0.479904
0.331249
0.446087
0.642192
0.594595
0.394495
0.390313
0.574175
0.630109
0.48846
0.41664
0.519835
0.598704
0.535781
0.469695
0.509492
0.558945
0.534321
0.497161
0.515078
0.542947
0.532844
0.511189
0.51613
0.535669
0.541438
0.531564
0.51068
0.495367
0.500479
0.511555
0.510061
0.5046
0.494456
0.465278
0.453799
0.481277
0.464125
0.389715
0.417314
0.554953
0.547012
0.338429
0.23837
0.405868
0.552858
0.402312
0.209191
0.348307
0.580132
0.460597
0.201859
0.268083
0.519841
0.536829
0.349808
0.295711
0.406572
0.46572
0.28972
-0.145888
-0.138723
0.299652
0.496149
0.156919
-0.149548
0.0860437
0.482806
0.395626
-0.0157664
-0.0554282
0.342413
0.523414
0.201142
-0.0732597
0.160517
0.526443
0.439759
0.0536861
0.000764517
0.368907
0.578084
0.303345
-0.011109
0.136872
0.516347
0.526566
0.147285
-0.0213335
0.29442
0.605368
0.418679
0.0273642
0.0484754
0.429566
0.540241
0.196433
-0.0540604
0.189778
0.576015
0.538298
0.114391
-0.109225
0.148508
0.441659
0.320366
0.0739608
0.215584
0.58365
0.562978
0.0534514
-0.281718
0.02053
0.472483
0.428524
0.143588
0.231777
0.54978
0.492821
0.0498012
-0.160279
0.145901
0.527146
0.19545
-0.253826
-0.200471
0.28012
0.440108
0.0144297
-0.329787
-0.0487926
0.392723
0.260651
-0.24079
-0.293298
0.191065
0.417746
0.00407435
-0.379041
-0.10159
0.395955
0.304067
-0.237778
-0.355091
0.150394
0.474427
0.0925093
-0.388132
-0.19702
0.367552
0.405665
-0.14924
-0.418863
0.0250482
0.480502
0.226737
-0.318644
-0.269142
0.300765
0.479776
-0.0152868
-0.40255
-0.079433
0.458971
0.40451
-0.133822
-0.317683
0.112454
0.442528
0.150749
-0.250713
-0.074332
0.426495
0.464769
-0.0461413
-0.338805
0.0206432
0.442372
0.264725
-0.16054
-0.0786568
0.387811
0.46058
-0.0125311
-0.319113
-0.00263864
0.443046
0.4355
0.253788
0.296398
0.526305
0.581417
0.337674
0.152436
0.319952
0.571496
0.477159
0.16068
0.124738
0.433306
0.580053
0.301371
0.029954
0.205382
0.549785
0.493723
0.107566
0.00625413
0.358731
0.598293
0.326579
-0.030867
0.0981212
0.512151
0.549264
0.147049
-0.0558515
0.26188
0.591069
0.404223
0.00732383
0.0463915
0.466652
0.607443
0.258474
-0.0277733
0.181105
0.541201
0.49229
0.13659
0.0661093
0.408694
0.614626
0.335771
-0.0190798
0.0715646
0.444838
0.537118
0.268398
0.129206
0.363737
0.570971
0.346649
-0.0249608
0.0247371
0.428938
0.583201
0.301108
0.0656006
0.249108
0.541339
0.415337
0.616929
0.578275
0.398153
0.366323
0.511336
0.598334
0.520655
0.433336
0.473147
0.560463
0.55883
0.492242
0.477124
0.525323
0.550876
0.523066
0.500926
0.516446
0.533672
0.52569
0.516012
0.52303
0.527139
0.518168
0.514226
0.525258
0.531955
0.522669
0.514631
0.523072
0.53296
0.523614
0.508757
0.509269
0.51518
0.513828
0.517073
0.526348
0.520567
0.499615
0.490215
0.504727
0.522641
0.518457
0.498447
0.486441
0.482716
0.474597
0.468425
0.485399
0.52988
0.555174
0.519304
0.466399
0.442761
0.436288
0.449439
0.484712
0.515957
0.5303
0.524323
0.512133
0.519986
0.0535033
0.521344
0.394553
-0.114638
-0.195527
0.279213
0.567293
0.240101
-0.151743
0.0260706
0.488542
0.50517
0.0711361
-0.100009
0.269288
0.589826
0.361162
-0.0315288
0.0494961
0.475398
0.570388
0.194507
-0.0423917
0.239613
0.593044
0.459095
0.0546304
0.0235259
0.414684
0.607379
0.298227
-0.0178628
0.162829
0.553736
0.529378
0.115821
-0.0416446
0.305999
0.611967
0.397069
0.0120297
0.0728865
0.47324
0.55781
0.175147
-0.073695
0.211983
0.598309
0.501942
0.0964054
0.0247445
0.381356
0.560859
0.24538
-0.0542173
0.163664
0.573052
0.556374
0.162297
0.0107013
0.325775
0.585509
0.373511
0.0546329
0.007903
0.481827
0.335697
-0.222811
-0.314767
0.207389
0.509171
0.0953468
-0.386193
-0.170837
0.396004
0.401536
-0.16932
-0.402789
0.0760525
0.498681
0.184254
-0.362661
-0.263561
0.324053
0.459014
-0.0746907
-0.422106
-0.0268059
0.481963
0.293035
-0.292354
-0.342089
0.222179
0.501055
0.0506859
-0.40998
-0.14541
0.42889
0.405716
-0.177687
-0.398983
0.0893562
0.509277
0.195515
-0.342053
-0.23655
0.344983
0.470066
-0.0679236
-0.421188
-0.0305543
0.495751
0.341657
-0.234588
-0.313906
0.218076
0.487186
0.047429
-0.389151
-0.10671
0.462887
0.429466
-0.153271
-0.371013
0.108226
0.504543
0.179498
-0.339122
0.378967
0.604863
0.536851
0.254467
0.200515
0.469394
0.623435
0.378999
0.0937191
0.219957
0.561319
0.556294
0.185316
0.028535
0.338908
0.615958
0.397901
0.01806
0.0811586
0.487623
0.580611
0.200003
-0.0521638
0.22669
0.591171
0.455618
0.0326897
-0.00423918
0.403997
0.60566
0.27792
-0.0580229
0.131536
0.547176
0.535385
0.122954
-0.0312423
0.316947
0.6093
0.375235
-0.0129751
0.0665317
0.490327
0.58991
0.215727
-0.0367335
0.226284
0.579588
0.450794
0.0345677
-0.00345365
0.406662
0.617132
0.29953
-0.0365284
0.137031
0.532892
0.505173
0.0800274
-0.0680228
0.307903
0.613708
0.353707
-0.0721821
0.501731
0.352064
0.411594
0.577513
0.594086
0.461262
0.403471
0.497035
0.581637
0.541847
0.466839
0.475293
0.536706
0.552374
0.515632
0.495426
0.514171
0.532052
0.526235
0.517324
0.519567
0.521337
0.517472
0.519222
0.526937
0.525334
0.514298
0.512841
0.525715
0.532203
0.521342
0.510569
0.514528
0.523242
0.523053
0.51755
0.517363
0.523359
0.525299
0.516819
0.507888
0.50964
0.515881
0.518659
0.521766
0.524031
0.520552
0.5149
0.506
0.494956
0.49901
0.519056
0.53028
0.522356
0.507766
0.504118
0.51582
0.516653
0.492262
0.483762
0.521062
0.555556
0.525357
0.463063
0.235102
-0.221962
-0.0735932
0.442548
0.508709
0.0399069
-0.195268
0.184033
0.578066
0.378926
-0.07091
-0.044174
0.41586
0.584298
0.213688
-0.0875241
0.164218
0.568316
0.490672
0.0697646
-0.0163062
0.369633
0.615431
0.337165
-0.015846
0.119262
0.527258
0.560958
0.169125
-0.0246109
0.288247
0.612202
0.431941
0.030766
0.0437948
0.448779
0.599654
0.256058
-0.0330649
0.194522
0.577968
0.506306
0.0884673
-0.0158118
0.35807
0.614459
0.348316
-0.00663402
0.121359
0.527936
0.565122
0.17089
-0.0323641
0.277113
0.607062
0.439872
0.0615554
0.0896969
0.479558
0.608495
0.276439
0.0194283
0.246062
0.590559
0.186728
-0.323697
-0.176157
0.385828
0.449022
-0.101289
-0.389143
0.0461068
0.506062
0.247438
-0.323927
-0.298308
0.282855
0.489728
-0.0109842
-0.420836
-0.0855087
0.460185
0.345095
-0.247281
-0.37215
0.169744
0.515518
0.115089
-0.393078
-0.199932
0.387315
0.434605
-0.13345
-0.414552
0.0379824
0.506928
0.249088
-0.324708
-0.30192
0.280625
0.494565
-0.00131811
-0.417012
-0.0891304
0.464078
0.365732
-0.228322
-0.376365
0.153521
0.513855
0.130619
-0.378803
-0.19518
0.392425
0.447856
-0.121975
-0.41616
0.0310727
0.507743
0.257919
-0.309777
-0.279213
0.301122
0.496379
-0.0125296
-0.413146
-0.0636682
0.476445
0.459676
0.203344
0.273851
0.563935
0.593784
0.28436
0.113272
0.356272
0.621512
0.460051
0.103055
0.113654
0.478249
0.604899
0.268356
-0.00960751
0.213841
0.582267
0.497245
0.0806612
-0.00903789
0.371743
0.614251
0.325542
-0.0399105
0.0984636
0.520746
0.553934
0.143319
-0.0597563
0.266856
0.604645
0.41822
0.00576623
0.0245148
0.445367
0.599039
0.241268
-0.0591438
0.174678
0.571343
0.502062
0.0784915
-0.0247922
0.356823
0.614133
0.334542
-0.0385441
0.0881784
0.512282
0.557013
0.149075
-0.062519
0.260883
0.603053
0.408661
-0.0247842
-0.00940336
0.42961
0.581607
0.189834
-0.125306
0.142587
0.563276
0.445961
0.599992
0.556062
0.416321
0.41347
0.538553
0.590202
0.507621
0.439794
0.486186
0.559248
0.55153
0.49647
0.485787
0.522102
0.541375
0.52454
0.509168
0.514957
0.523253
0.52191
0.521024
0.52408
0.521072
0.513654
0.515891
0.526806
0.528503
0.517168
0.51106
0.520132
0.529332
0.523386
0.511647
0.512692
0.524624
0.528776
0.519656
0.51189
0.515905
0.523403
0.521798
0.513604
0.513042
0.523573
0.530065
0.520667
0.506277
0.506889
0.521644
0.527813
0.516242
0.507173
0.518577
0.533852
0.519098
0.482793
0.4827
0.531788
0.556027
0.509085
0.461343
0.495526
0.563518
0.0780638
0.537175
0.384023
-0.112864
-0.142978
0.344174
0.578387
0.208082
-0.152959
0.077491
0.531736
0.498347
0.0534038
-0.0801504
0.311121
0.608499
0.353767
-0.0328353
0.0677155
0.495417
0.57657
0.192411
-0.0409486
0.247197
0.600287
0.462012
0.0556856
0.0271628
0.421797
0.614257
0.299881
-0.0223248
0.158763
0.555186
0.536662
0.131777
-0.0163925
0.328334
0.618619
0.392464
0.00879358
0.0776175
0.489131
0.588382
0.21824
-0.0311784
0.236467
0.59389
0.473881
0.0720928
0.0320949
0.419183
0.616682
0.312214
-0.00142901
0.17957
0.564355
0.546516
0.174005
0.0561789
0.383006
0.630687
0.411556
0.0922469
0.0181293
0.504058
0.312163
-0.267426
-0.31438
0.243028
0.508136
0.0502653
-0.400919
-0.1248
0.434558
0.377988
-0.208235
-0.389336
0.123674
0.513273
0.158092
-0.376609
-0.240088