# vtk DataFile Version 3.0
PFC-RG simulation results
ASCII
DATASET STRUCTURED_POINTS
DIMENSIONS 64 64 1
ORIGIN 0 0 0
SPACING 1 1 1
POINT_DATA 4096
SCALARS psi double
LOOKUP_TABLE default
0.493281
0.535517
0.516672
0.455866
0.478017
0.538794
0.537763
0.502094
0.506043
0.536138
0.538896
0.512456
0.510159
0.54457
0.5541
0.50902
0.486332
0.549168
0.589817
0.514342
0.444747
0.525364
0.620248
0.545977
0.439208
0.502761
0.621573
0.564254
0.424907
0.44667
0.582642
0.607215
0.514861
0.470565
0.500361
0.512572
0.479096
0.443308
0.442152
0.468432
0.513813
0.54966
0.414687
0.07734
-0.0650949
0.234987
0.565365
0.561034
0.502359
0.61333
0.496729
-0.040665
-0.356353
0.0218549
0.545214
0.614675
0.513023
0.592287
0.506033
0.0256709
-0.302808
-0.0311575
0.450883
0.614766
0.0116275
0.0442119
0.305193
0.539358
0.456413
0.124777
0.00684766
0.30512
0.578722
0.393894
0.0346772
0.0654292
0.438655
0.567657
0.251041
-0.0207233
0.16579
0.516553
0.486567
0.13367
0.00534728
0.277955
0.501525
0.365236
0.159661
0.187618
0.307361
0.316038
0.324233
0.395868
0.330491
0.136501
0.152808
0.41081
0.476543
0.232104
0.136415
0.402736
0.581266
0.321529
0.0150875
0.152432
0.446366
0.373871
0.170829
0.287859
0.455826
0.308586
0.179235
0.384076
0.49906
0.180685
-0.0673149
0.200058
0.506761
0.365751
0.172192
0.348687
0.51083
0.265347
-0.0190967
0.101808
0.416178
0.487684
-0.302488
-0.282832
0.0938422
0.449797
0.313501
-0.1945
-0.359898
0.0914803
0.479054
0.183784
-0.3401
-0.26684
0.286963
0.446574
-0.0334961
-0.393951
-0.081057
0.400454
0.298765
-0.202805
-0.316452
0.0995968
0.370349
0.122521
-0.187071
-0.13279
0.0782931
0.140695
0.141168
0.149449
-0.0208268
-0.266708
-0.152214
0.27388
0.377233
0.0159207
-0.128161
0.259793
0.498196
0.0755924
-0.395148
-0.166887
0.406281
0.56984
0.44314
0.478758
0.417709
-0.0342748
-0.336362
0.00409427
0.500393
0.556491
0.447365
0.554425
0.502275
-0.00108763
-0.353438
-0.0262895
0.503149
0.600924
0.431045
0.409125
0.464934
0.324916
0.0306154
0.0421173
0.28608
0.525396
0.451659
0.118916
0.00716259
0.324194
0.596115
0.376566
-0.00144537
0.0629977
0.469556
0.574702
0.219082
-0.0264799
0.220556
0.561139
0.460058
0.0958428
0.0511911
0.376652
0.543839
0.314897
0.0878143
0.173423
0.35504
0.373593
0.329429
0.312221
0.175435
-0.00456339
0.11977
0.484397
0.518488
0.0935802
-0.118475
0.247669
0.546935
0.245418
-0.120812
0.0836001
0.483026
0.462674
0.295379
0.43836
0.512199
0.117561
-0.206418
0.0807709
0.511245
0.498541
0.35499
0.494038
0.521532
0.0914658
-0.23344
0.0604181
0.495155
0.48856
0.3049
0.372201
0.515074
0.427462
0.429742
0.521663
0.513522
0.445334
0.465962
0.531295
0.54024
0.519783
0.521244
0.525028
0.518088
0.520039
0.528487
0.523952
0.515513
0.524661
0.537434
0.528407
0.507219
0.513718
0.547181
0.55337
0.5087
0.478328
0.528967
0.582157
0.528753
0.437056
0.476224
0.587698
0.542325
0.386318
0.410986
0.608588
0.563141
0.153994
-0.0733542
0.24714
0.613104
0.54553
0.397357
0.530595
0.540256
0.0989701
-0.217964
0.110528
0.562525
0.526592
0.353183
0.48616
0.520318
0.0943901
-0.222775
0.0873367
0.519532
0.492009
0.345279
0.482689
0.498149
0.0822124
-0.199813
0.0865527
0.469934
0.498917
0.266992
0.553479
0.373511
-0.0188894
0.0401249
0.467383
0.585085
0.224181
-0.0390316
0.201617
0.570596
0.496612
0.0936059
-0.0129818
0.34252
0.602483
0.357257
-0.00812937
0.0756626
0.471201
0.557682
0.206128
-0.0403112
0.182947
0.529913
0.487651
0.131574
-0.0326713
0.209234
0.50628
0.466411
0.200558
0.104693
0.271506
0.35022
0.133015
-0.00870968
0.245027
0.510784
0.432788
0.362192
0.546633
0.511281
-0.00691534
-0.348592
0.0113523
0.522701
0.559975
0.445495
0.572808
0.522535
-0.00568781
-0.363031
-0.0115692
0.505275
0.564018
0.471078
0.587476
0.50073
-0.00780775
-0.266366
0.0904057
0.390688
0.216705
-0.0501952
0.406315
0.213242
-0.308875
-0.252374
0.30776
0.461266
-0.0450271
-0.417246
-0.0724484
0.456359
0.347498
-0.23037
-0.374553
0.140577
0.504058
0.143083
-0.370064
-0.228265
0.336824
0.433656
-0.0777287
-0.391869
-0.0393624
0.419663
0.3003
-0.186064
-0.329569
0.038765
0.38629
0.261061
-0.139628
-0.299673
-0.039113
0.283345
0.314311
0.260357
0.394745
0.400806
0.0463761
-0.148802
0.179779
0.500278
0.346264
0.156862
0.357303
0.492135
0.166085
-0.0844776
0.206899
0.524889
0.365236
0.167401
0.367111
0.503713
0.18586
-0.0521054
0.224223
0.494067
0.333937
0.226767
0.45326
0.409437
-0.0997464
0.115492
0.513432
0.393705
0.0123536
0.0629891
0.474682
0.579742
0.211663
-0.0514366
0.198461
0.57437
0.495719
0.0872506
-0.0105117
0.357577
0.612831
0.353382
-0.00606037
0.104159
0.504391
0.562582
0.202048
0.00127883
0.259399
0.558995
0.454999
0.137736
0.0756995
0.331842
0.540722
0.407151
0.0601492
-0.0943979
0.154037
0.500506
0.546259
0.449922
0.510729
0.433754
-0.0374969
-0.341128
0.0104591
0.520934
0.598169
0.509862
0.608708
0.50643
-0.0527768
-0.406168
-0.028113
0.524114
0.611389
0.520221
0.618765
0.511939
-0.0460656
-0.389196
-0.022159
0.491894
0.569132
0.518681
0.635874
0.510802
0.0368125
0.460158
0.564924
0.538382
0.46418
0.48791
0.541206
0.533646
0.506231
0.511302
0.524978
0.520525
0.513556
0.518219
0.525155
0.524299
0.518302
0.515887
0.523631
0.531268
0.521762
0.506295
0.518219
0.547714
0.537553
0.492854
0.496317
0.556817
0.563352
0.501083
0.500567
0.552907
0.494896
0.387819
0.461129
0.567126
0.388282
0.164735
0.301633
0.497947
0.309469
0.0906283
0.287057
0.510582
0.323863
0.12931
0.342108
0.51908
0.239848
-0.00736582
0.243334
0.518231
0.335062
0.126676
0.334628
0.51381
0.242819
-0.00120809
0.236487
0.512957
0.363082
0.150488
0.290739
0.495273
0.449468
0.334648
0.164941
0.272546
0.505279
0.471784
0.138661
0.00442024
0.319567
0.603634
0.386416
-0.00274651
0.0567088
0.474304
0.586793
0.215367
-0.052583
0.204189
0.579334
0.480397
0.0599714
-0.0237256
0.361367
0.607576
0.318977
-0.0518027
0.0865467
0.510221
0.530078
0.129086
-0.0207214
0.29912
0.555913
0.475889
0.374238
0.300239
0.00773164
-0.232213
0.0306884
0.492241
0.593951
0.510987
0.585627
0.486975
-0.036193
-0.376164
-0.0200717
0.513132
0.592326
0.490327
0.592443
0.517762
-0.0193598
-0.387235
-0.0399449
0.508576
0.604527
0.488198
0.566318
0.541217
0.103132
-0.30407
-0.155847
0.334597
0.615626
-0.0641565
-0.243895
0.0281819
0.424211
0.348565
-0.170656
-0.368918
0.0925937
0.503332
0.197261
-0.351633
-0.267525
0.320213
0.477725
-0.0453667
-0.420008
-0.0549557
0.471482
0.328417
-0.257242
-0.361795
0.177274
0.503727
0.0978279
-0.39149
-0.182217
0.378434
0.37682
-0.164468
-0.34786
0.0884634
0.432981
0.317919
0.169781
0.159828
0.028074
-0.0798915
0.15877
0.452164
0.392294
0.276647
0.448218
0.502249
0.107067
-0.187101
0.110925
0.511643
0.457505
0.298763
0.457436
0.521334
0.118002
-0.20216
0.0881571
0.514548
0.480426
0.287691
0.402728
0.52851
0.248477
-0.127992
-0.0782525
0.307444
0.51521
-0.0781228
-0.0624282
0.249798
0.560399
0.499756
0.125462
-0.0208838
0.305894
0.604688
0.394552
0.00612801
0.0631928
0.477766
0.589874
0.222685
-0.0392827
0.218246
0.587027
0.486056
0.0784498
0.0107144
0.389826
0.613298
0.325091
-0.0105167
0.147045
0.53496
0.516592
0.14069
0.0405865
0.336542
0.489609
0.329871
0.273184
0.405778
0.437147
0.42456
0.524945
0.433203
-0.021944
-0.278163
0.0828994
0.534863
0.525613
0.392715
0.526257
0.519096
0.0493106
-0.28546
0.0417012
0.518688
0.530149
0.385425
0.511808
0.530694
0.0827039
-0.287818
-0.0185371
0.482233
0.575235
0.384277
0.360318
0.488387
0.461286
0.273056
0.414219
0.506262
0.492084
0.493738
0.5212
0.520809
0.510127
0.516341
0.5247
0.523227
0.519956
0.518754
0.51805
0.520732
0.525056
0.522578
0.515874
0.516833
0.524815
0.5273
0.522372
0.518557
0.517696
0.521292
0.530117
0.525672
0.498146
0.499173
0.557614
0.557727
0.409751
0.309737
0.455572
0.608982
0.525706
0.455236
0.567174
0.466461
-0.0280799
-0.307143
0.0618913
0.535425
0.547932
0.429842
0.559173
0.522679
0.0154836
-0.337033
0.00354471
0.514671
0.562504
0.438197
0.552488
0.528686
0.0444347
-0.318543
-0.0223655
0.466162
0.534077
0.397019
0.465971
0.575729
0.463285
0.450948
0.582918
0.349623
-0.0344579
0.023781
0.455181
0.599035
0.246803
-0.0429164
0.182075
0.568089
0.507077
0.091544
-0.0236537
0.345793
0.61485
0.353959
-0.0243925
0.0803643
0.500173
0.566828
0.177114
-0.0488026
0.241028
0.582066
0.440942
0.044582
0.00112286
0.364426
0.57915
0.32384
-0.0250893
0.0535509
0.436494
0.496776
0.107179
-0.103745
0.208763
0.52003
0.392275
0.236099
0.426972
0.51563
0.143326
-0.13716
0.156472
0.519451
0.412756
0.228318
0.406363
0.517973
0.164912
-0.1249
0.148579
0.507403
0.418366
0.251216
0.413834
0.487922
0.139102
-0.101821
0.167211
0.461228
0.369559
0.312751
0.512635
0.188622
-0.342145
-0.277084
0.298391
0.488667
-0.00404279
-0.410407
-0.0945208
0.450276
0.366594
-0.217306
-0.379114
0.139967
0.516831
0.150773
-0.377033
-0.226876
0.361464
0.451996
-0.0963244
-0.411484
0.000308109
0.48329
0.285125
-0.269985
-0.324095
0.179691
0.458238
0.122563
-0.254967
-0.0566266
0.421338
0.411542
-0.133481
-0.419962
-0.00750549
0.529598
0.598804
0.496417
0.595626
0.509224
-0.039976
-0.405997
-0.0427431
0.515419
0.611311
0.512687
0.609583
0.52181
-0.0309395
-0.402688
-0.0494332
0.498321
0.601445
0.525733
0.619873
0.500099
-0.0260724
-0.289789
0.0707039
0.394042
0.236937
0.150803
0.504939
0.401565
0.0492857
0.080498
0.465435
0.583692
0.23762
-0.0369751
0.18881
0.567155
0.506939
0.0998823
-0.0119191
0.351919
0.615628
0.358743
-0.0102008
0.0973288
0.510407
0.572229
0.187569
-0.0309021
0.259041
0.597042
0.461595
0.0799471
0.0432074
0.390402
0.58782
0.363955
0.0948486
0.199262
0.512239
0.538676
0.195771
-0.00565552
0.253497
0.502951
0.296072
0.0639888
0.278139
0.510398
0.288176
0.0509711
0.275052
0.515837
0.296955
0.064127
0.287886
0.516842
0.284271
0.0483973
0.27614
0.511034
0.293664
0.0737557
0.287348
0.487223
0.286258
0.149435
0.388007
0.484794
0.191097
0.147497
0.43173
0.554332
0.537473
0.531499
0.532367
0.507015
0.498455
0.521271
0.530308
0.515752
0.510299
0.520521
0.525274
0.519497
0.515949
0.519436
0.52357
0.522652
0.517184
0.513848
0.519517
0.527804
0.522625
0.507945
0.510888
0.533286
0.537635
0.520557
0.52829
0.550148
0.507725
0.415688
0.414994
0.512977
0.534842
0.5106
0.58221
0.479411
-0.0213686
-0.370167
-0.0376168
0.505348
0.610798
0.513732
0.604288
0.519551
-0.0281027
-0.403149
-0.0484685
0.51042
0.609593
0.51068
0.607103
0.524724
-0.0185344
-0.391888
-0.057035
0.482347
0.603494
0.530057
0.597343
0.549702
0.262151
0.23346
0.159032
0.276098
0.507969
0.491727
0.152289
-0.0136229
0.294018
0.602984
0.40036
5.66947e-06
0.0493299
0.472023
0.589641
0.21519
-0.0520026
0.212678
0.586643
0.475321
0.0537576
-0.0128577
0.380072
0.611715
0.313717
-0.0486777
0.0920575
0.511247
0.54873
0.161343
-0.0239666
0.259098
0.511358
0.34208
0.0922779
0.147358
0.31229
0.377108
0.466398
0.461908
0.140776
-0.107647
0.149694
0.499104
0.421032
0.253768
0.422197
0.519503
0.15369
-0.146114
0.13517
0.515774
0.431365
0.248113
0.415425
0.522732
0.166887
-0.139882
0.120769
0.512188
0.467051
0.247015
0.299557
0.460537
0.426059
0.28827
-0.00488085
0.0308167
0.329531
0.332178
-0.117844
-0.342666
0.0784301
0.49697
0.20998
-0.344482
-0.271207
0.318922
0.479263
-0.0478883
-0.420744
-0.0463249
0.478881
0.321993
-0.266771
-0.35583
0.19401
0.513644
0.099307
-0.395059
-0.192638
0.382048
0.421611
-0.125279
-0.393811
0.00603412
0.43313
0.325233
0.00278767
-0.0945317
-0.0926808
-0.098666
0.118048
0.452897
0.520388
0.454624
0.554054
0.498903
0.0164756
-0.317301
0.0160506
0.513884
0.552781
0.42571
0.546849
0.527832
0.0354893
-0.32633
3.89217e-05
0.511865
0.562032
0.421888
0.525166
0.54342
0.121435
-0.28144
-0.120655
0.356116
0.587759
0.225269
0.182546
0.27177
0.464154
0.474289
0.182351
0.0222165
0.304954
0.598231
0.400004
0.00901781
0.0602736
0.477381
0.58917
0.215835
-0.0454335
0.220157
0.58903
0.478967
0.0695868
0.0102201
0.393035
0.613652
0.327708
-0.00887017
0.1364
0.531328
0.549182
0.165628
-0.0151525
0.263681
0.555869
0.501068
0.303352
0.172273
0.0120218
-0.0946502
0.11927
0.462514
0.517362
0.441712
0.547231
0.506109
0.0347895
-0.29602
0.0300427
0.512693
0.536503
0.403244
0.531131
0.527793
0.0504318
-0.304999
0.0156654
0.51039
0.542192
0.397696
0.508836
0.530769
0.115882
-0.251138
-0.0525312
0.390797
0.544925
0.0437857
0.433559
0.581806
0.510251
0.495459
0.538249
0.532842
0.508244
0.517508
0.532198
0.524491
0.515731
0.5199
0.52345
0.521325
0.520736
0.520129
0.516381
0.517395
0.525514
0.52653
0.515291
0.50933
0.51963
0.53065
0.525405
0.508768
0.496363
0.506532
0.536128
0.524431
0.436719
0.390783
0.489655
0.563704
0.443977
0.341941
0.461116
0.486146
0.136538
-0.133098
0.137325
0.511323
0.44818
0.283679
0.443803
0.522879
0.135737
-0.176791
0.110601
0.513415
0.451586
0.278542
0.438543
0.519771
0.135922
-0.170587
0.110267
0.499951
0.449466
0.286725
0.40662
0.470507
0.213989
-0.0135075
0.483985
0.465413
0.068663
0.0470377
0.440354
0.582364
0.240085
-0.0327681
0.200556
0.574395
0.49979
0.0899468
-0.01169
0.357747
0.615123
0.348409
-0.0242399
0.0878298
0.506952
0.564503
0.165569
-0.0594915
0.241176
0.586089
0.429415
0.0151007
-0.0244611
0.359842
0.585454
0.306622
-0.10699
-0.0993928
0.312937
0.585726
0.48511
0.405939
0.563688
0.508516
-0.0158879
-0.384465
-0.0441509
0.50846
0.607904
0.501862
0.597833
0.529433
-0.00996625
-0.393146
-0.0496758
0.505584
0.603553
0.503969
0.603786
0.522284
-0.0218676
-0.378617
-0.0230373
0.49276
0.56255
0.493563
0.605375
0.472917
-0.0592003
0.261173
0.53
0.250425
-0.312691
-0.287654
0.282594
0.474313
-0.0196253
-0.411758
-0.0798618
0.455704
0.352123
-0.229812
-0.373332
0.150521
0.514372
0.13996
-0.380823
-0.222267
0.362797
0.444086
-0.105775
-0.413828
0.000815226
0.474907
0.265485
-0.289859
-0.337759
0.170531
0.455024
0.10464
-0.351944
-0.255839
0.247047
0.435106
0.112712
-0.0806926
0.23051
0.510936
0.301334
0.0617021
0.278726
0.514504
0.275127
0.0108988
0.236446
0.51408
0.327867
0.0951744
0.302677
0.517257
0.267809
0.0180032
0.253065
0.510419
0.310232
0.104677
0.327287
0.49792
0.2257
0.0396737
0.310361
0.459487
0.119663
0.509568
0.627373
0.369982
-0.0382353
0.0234265
0.464322
0.590852
0.218762
-0.0590781
0.187211
0.569847
0.494869
0.0842752
-0.0153582
0.354307
0.611306
0.350076
-0.0142335
0.0963643
0.505082
0.56427
0.186958
-0.023803
0.258574
0.581157
0.448714
0.0893964
0.0555784
0.372332
0.555026
0.35934
0.109211
0.203262
0.515564
0.485567
-0.0331477
-0.368168
-0.0225291
0.504215
0.593602
0.49189
0.593278
0.533028
-0.0102683
-0.413049
-0.0769501
0.497532
0.615154
0.513521
0.608016
0.532091
-0.0215695
-0.411095
-0.0608844
0.502173
0.609027
0.522995
0.617209
0.502092
-0.051763
-0.369471
0.00900274
0.488699
0.499197
0.24288
0.436254
0.525368
0.476028
0.477017
0.53102
0.531789
0.499857
0.501409
0.521282
0.523699
0.517507
0.518894
0.521019
0.518858
0.519424
0.523792
0.524903
0.519885
0.514287
0.515871
0.526719
0.532123
0.514603
0.493949
0.513283
0.5547
0.53883
0.474292
0.477093
0.553422
0.56105
0.508444
0.548639
0.540115
0.245918
-0.00856034
0.198353
0.513113
0.424406
0.235522
0.394575
0.528207
0.202184
-0.102194
0.152926
0.516731
0.411192
0.20288
0.378665
0.525717
0.194286
-0.108327
0.154797
0.516695
0.414111
0.220141
0.388111
0.507301
0.184592
-0.0894868
0.150653
0.511186
0.523868
-0.220825
0.000157968
0.361692
0.576442
0.450697
0.107868
0.00295298
0.322376
0.598112
0.384382
0.00593155
0.0696832
0.480698
0.58216
0.210624
-0.0423751
0.223571
0.584582
0.467479
0.0557325
-0.00418999
0.37916
0.595979
0.294491
-0.0560782
0.0957149
0.49884
0.490498
0.0845466
-0.0549879
0.248507
0.405038
0.160072
0.0452145
0.304805
0.489105
0.462316
0.528548
0.507269
0.0726461
-0.299352
-0.0240428
0.488358
0.569589
0.444188
0.555172
0.547799
0.0511724
-0.346227
-0.0341648
0.502529
0.574542
0.444085
0.555534
0.538472
0.0418857
-0.339244
-0.025318
0.504041
0.588295
0.437345
0.466562
0.490305
0.249254
-0.15633
-0.09329
0.209241
0.450088
0.274037
-0.203471
-0.33827
0.119374
0.496733
0.181955
-0.351704
-0.257133
0.321332
0.462884
-0.058234
-0.414771
-0.0460612
0.461306
0.307166
-0.263235
-0.355701
0.167405
0.476051
0.0789931
-0.398528
-0.211548
0.315404
0.313521
-0.199599
-0.372072
0.00126507
0.169128
-0.165929
-0.301946
0.101368
0.438677
0.423514
0.452064
0.465438
0.0885423
-0.27606
-0.0232554
0.470588
0.524542
0.363575
0.476743
0.530158
0.103506
-0.272118
0.0103664
0.497269
0.524874
0.373701
0.502302
0.532343
0.0791139
-0.290991
0.0030149
0.498369
0.548024
0.379027
0.419117
0.465623
0.220231
0.304739
0.280326
0.384215
0.493814
0.403487
0.124786
0.0404014
0.341134
0.596268
0.377407
0.00171966
0.0654425
0.473685
0.577875
0.213495
-0.0422334
0.20875
0.568322
0.476115
0.0811973
-0.00121912
0.353394
0.588988
0.33353
-0.0104065
0.0990658
0.467972
0.474232
0.116031
0.0165356
0.302323
0.39383
0.115886
0.0380138
0.3145
0.345196
0.0560119
0.0973426
0.443986
0.467627
0.280937
0.389121
0.515626
0.177552
-0.19058
0.0367376
0.481722
0.487698
0.312609
0.443367
0.525629
0.137416
-0.200831
0.0761053
0.503105
0.465481
0.287721
0.429539
0.5076
0.138371
-0.166768
0.0842918
0.481028
0.499736
0.358556
0.522416
0.529062
0.432969
0.453126
0.543472
0.552478
0.509266
0.509278
0.533197
0.528161
0.511055
0.516584
0.534072
0.53625
0.519602
0.505454
0.518577
0.54624
0.542586
0.503483
0.495609
0.541827
0.555936
0.501481
0.482654
0.539601
0.529505
0.422471
0.427006
0.559392
0.543971
0.375446
0.406864
0.574889
0.360803
-0.104268
-0.0607826
0.440117
0.642105
0.524001
0.557511
0.545509
0.0962918
-0.320493
-0.0668985
0.477774
0.608304
0.500267
0.588345
0.544381
0.0275647
-0.368334
-0.0503172
0.494323
0.594063
0.498896
0.600242
0.516176
-0.0180137
-0.345926
0.01328
0.488234
0.519011
-0.0338526
0.393705
0.354882
0.0155402
0.066628
0.471167
0.56231
0.191412
-0.046011
0.220938
0.574894
0.472716
0.0820645
0.0124868
0.369206
0.590215
0.32878
0.00424269
0.127509
0.488965
0.509359
0.177145
0.027543
0.250042
0.450869
0.350654
0.158432
0.104792
0.145678
0.204198
0.236948
0.153701
0.0281018
0.130168
0.387428
0.350723
0.0649703
0.0960353
0.379419
0.332557
0.0919705
0.201531
0.46767
0.375226
0.162409
0.314829
0.512784
0.273325
-0.00252617
0.210618
0.50826
0.353127
0.125518
0.317093
0.516575
0.262665
0.0196263
0.256893
0.497005
0.288502
0.112814
0.346744
0.448681
0.103024
-0.0833065
0.370889
0.231329
-0.262778
-0.223965
0.30133
0.426391
-0.0740323
-0.407945
-0.0497346
0.444204
0.311691
-0.236486
-0.352583
0.134159
0.461641
0.124968
-0.338329
-0.21265
0.278093
0.357462
-0.064624
-0.308507
-0.0591508
0.222661
0.13467
-0.101225
-0.17125
-0.126362
-0.0827904
-0.0517968
-0.108726
-0.251355
-0.212773
0.100243
0.340821
0.340481
0.353982
0.339304
0.0096176
-0.314701
-0.103368
0.388012
0.554289
0.491662
0.580569
0.525017
-0.00203334
-0.414173
-0.101824
0.469146
0.597384
0.497406
0.594674
0.533072
-0.00837474
-0.398439
-0.0643746
0.47289
0.571712
0.50655
0.602377
0.440441
-0.121743
0.358593
0.611938
0.427886
0.0231888
0.06132
0.467922
0.568647
0.209388
-0.0330736
0.212211
0.559379
0.478598
0.0979373
-0.00345139
0.32208
0.574848
0.370359
0.0286131
0.0706262
0.414284
0.520199
0.248379
0.0488439
0.192969
0.392369
0.348592
0.205741
0.178514
0.200098
0.202536
0.239664
0.250819
0.145267
0.0901383
0.242022
0.422192
0.477142
0.507034
0.445728
0.144971
-0.0720715
0.154419
0.479943
0.402615
0.200545
0.356565
0.518639
0.213676
-0.0967745
0.146651
0.515486
0.41231
0.183757
0.350475
0.520858
0.209991
-0.102967
0.137141
0.502272
0.433355
0.25173
0.38012
0.46997
0.21544
0.485333
0.558245
0.537126
0.435189
0.442547
0.531614
0.559207
0.523734
0.50275
0.508889
0.526462
0.545307
0.537904
0.501006
0.496449
0.554001
0.579798
0.510798
0.459615
0.534988
0.612442
0.538126
0.441147
0.50294
0.611313
0.558019
0.438773
0.464707
0.566013
0.570033
0.500624
0.482079
0.524487
0.565641
0.521876
0.364659
0.279316
0.421981
0.547415
0.409587
0.308723
0.519735
0.61887
0.188255
-0.249237
-0.0115495
0.503022
0.573754
0.425631
0.542131
0.582971
0.12222
-0.305425
-0.0418978
0.490578
0.578775
0.439519
0.536525
0.56218
0.145925
-0.242814
-0.0425876
0.432687
0.596578
0.00425905
0.0326708
0.282244
0.470732
0.381928
0.117143
0.0605511
0.334522
0.532647
0.324483
0.0311455
0.124835
0.453115
0.491425
0.206372
0.0760993
0.26718
0.427146
0.344575
0.243961
0.265256
0.251818
0.200554
0.294463
0.437812
0.327045
0.0761649
0.107627
0.396461
0.477162
0.205901
0.0141838
0.223656
0.548334
0.480978
0.0461967
-0.147369
0.174441
0.471679
0.300637
0.100189
0.336988
0.558457
0.198994
-0.261703
-0.0661186
0.441322
0.506386
0.319449
0.413988
0.516901
0.162376
-0.224284
-0.00891221
0.462745
0.5296
0.388288
0.48332
0.53322
0.162112
-0.229625
-0.0816128
0.380902
0.540302
-0.266438
-0.219497
0.148359
0.422441
0.253347
-0.179719
-0.282414
0.107751
0.400406
0.127313
-0.288933
-0.198042
0.235182
0.320701
-0.037973
-0.243915
-0.0358355
0.1849
0.130934
0.024366
0.0184842
-0.0492582
-0.129908
0.0319201
0.273447
0.135677
-0.249183
-0.253815
0.171316
0.342744
-0.0507409
-0.402772
-0.143662
0.368723
0.375271
-0.114275
-0.303976
0.115209
0.430118
0.0994466
-0.293705
-0.0503482
0.436454
0.424004
0.134286
0.203285
0.401602
0.177013
-0.1628
-0.0151311
0.388542
0.451545
0.299406
0.381411
0.469296
0.172887
-0.12675
0.061314
0.420886
0.43203
0.248172
0.28945
0.451896
0.336767
0.132434
0.165133
0.397782
0.576769
0.460272
0.143135
0.0472034
0.321514
0.559897
0.386835
0.0641929
0.0918449
0.403647
0.494589
0.243974
0.0805961
0.220477
0.376322
0.338089
0.278883
0.299439
0.236248
0.134091
0.246323
0.468537
0.393961
0.0803012
0.0404272
0.371787
0.541391
0.253456
-0.0479454
0.109321
0.489941
0.517586
0.182769
0.062735
0.374831
0.581042
0.27547
-0.0849991
0.0737244
0.490476
0.589101
0.462933
0.491393
0.488397
0.156717
-0.155456
0.0120346
0.425339
0.575223
0.523582
0.576284
0.515632
0.0903952
-0.250282
-0.0356179
0.418544
0.578846
0.493625
0.490763
0.52968
0.374263
0.501264
0.436518
0.420386
0.495169
0.561928
0.506837
0.422563
0.472174
0.604814
0.600325
0.44968
0.410139
0.562206
0.648403
0.509063
0.392388
0.502037
0.635487
0.561784
0.432964
0.479594
0.58613
0.56177
0.478327
0.492918
0.554543
0.548497
0.503669
0.505476
0.542758
0.551008
0.526281
0.504341
0.506903
0.515786
0.506575
0.496583
0.512276
0.516487
0.470554
0.446548
0.487471
0.471956
0.371346
0.389637
0.548278
0.545497
0.327043
0.25046
0.446384
0.553709
0.336016
0.148627
0.326165
0.527527
0.366627
0.156745
0.300757
0.543736
0.469291
0.222259
0.199501
0.379495
0.473296
0.361833
0.176167
-0.00156134
0.0479415
0.272118
0.382921
0.266521
0.147185
0.222157
0.323936
0.255665
0.181238
0.297658
0.403791
0.248807
0.0842173
0.244683
0.493659
0.378106
0.0501975
0.0605694
0.415477
0.556015
0.253098
-0.0170962
0.170122
0.530914
0.51103
0.138128
-0.010211
0.302666
0.599858
0.417775
0.0420577
0.0611205
0.42783
0.544989
0.226468
-0.0220543
0.192676
0.568306
0.55598
0.136695
-0.132312
0.0950595
0.428532
0.369089
0.136762
0.25172
0.585083
0.527587
-0.00343019
-0.327908
-0.00931278
0.472107
0.530619
0.365899
0.426697
0.545942
0.311813
-0.105082
-0.183889
0.117871
0.391857
0.220006
0.0581211
-0.105375
-0.071276
0.138877
0.2445
0.102699
-0.0555569
0.00296569
0.100713
0.014471
-0.0621612
0.0978372
0.224701
-0.000568391
-0.245002
-0.0380889
0.335029
0.224045
-0.243515
-0.303606
0.174508
0.436614
0.0462163
-0.385588
-0.165966
0.374884
0.387203
-0.159557
-0.412587
0.0286318
0.475507
0.224884
-0.316695
-0.276503
0.286578
0.480124
0.00226951
-0.39739
-0.103003
0.441183
0.429983
-0.0952862
-0.327493
0.0649408
0.433305
0.202826
-0.197974
-0.067611
0.409864
0.472537
0.00322999
-0.283194
0.0374582
0.470877
0.434389
0.152919
0.183904
0.431494
0.367029
0.00887576
-0.115862
0.129773
0.347199
0.354593
0.42046
0.361391
0.293596
0.364753
0.459233
0.395856
0.269788
0.286559
0.357813
0.29685
0.227075
0.34105
0.449416
0.281217
0.0691014
0.203791
0.506105
0.456939
0.101529
0.0166457
0.357387
0.578
0.309169
-0.0256293
0.112482
0.513058
0.539223
0.141869
-0.0544492
0.26216
0.590231
0.404157
0.00190248
0.0316875
0.453117
0.6062
0.260854
-0.0413904
0.151425
0.524432
0.510494
0.166242
0.0656507
0.38346
0.608025
0.352879
-0.018817
0.040689
0.42022
0.565586
0.359511
0.228234
0.392462
0.54368
0.377778
0.107034
0.156168
0.460942
0.570077
0.410744
0.323405
0.422639
0.482937
0.305015
0.646906
0.627893
0.352903
0.301971
0.533366
0.647172
0.490868
0.377933
0.49512
0.616866
0.552416
0.45103
0.488372
0.566945
0.549984
0.491401
0.500465
0.545916
0.546776
0.512873
0.505879
0.531253
0.539995
0.521694
0.509977
0.523114
0.535674
0.526249
0.513496
0.521952
0.536888
0.527098
0.505769
0.506073
0.520377
0.521803
0.516811
0.520299
0.518169
0.501218
0.491126
0.504814
0.523789
0.520682
0.497127
0.47323
0.461213
0.459243
0.456122
0.467104
0.529285
0.588291
0.532017
0.405032
0.351084
0.390623
0.455642
0.486825
0.484181
0.526584
0.593947
0.554555
0.442068
-0.00344339
0.475035
0.400284
-0.0799071
-0.17873
0.247632
0.506021
0.216221
-0.0898193
0.114903
0.495942
0.436761
0.0502512
-0.0196528
0.348242
0.579032
0.31622
-0.0174561
0.108054
0.500801
0.548085
0.177435
-0.0234172
0.265749
0.593504
0.442668
0.0495749
0.0342564
0.422246
0.603975
0.295411
-0.01438
0.163392
0.550468
0.536057
0.132918
-0.0351829
0.296234
0.612766
0.421839
0.0298093
0.0563068
0.447313
0.562891
0.20255
-0.0708107
0.17884
0.580806
0.53565
0.122638
-0.0312869
0.286768
0.534618
0.284302
-0.0509119
0.101203
0.521086
0.576801
0.206859
-0.0182621
0.228985
0.515407
0.354599
0.0311504
0.00415854
0.415218
0.295047
-0.205588
-0.293826
0.167569
0.423944
0.0447625
-0.359943
-0.129667
0.365706
0.314008
-0.212805
-0.362138
0.119512
0.471448
0.12559
-0.372841
-0.227549
0.340155
0.431898
-0.101612
-0.413945
-0.00554447
0.48158
0.27552
-0.298999
-0.332741
0.22874
0.497877
0.0487205
-0.408532
-0.150186
0.422182
0.412704
-0.163866
-0.405196
0.0648481
0.505384
0.225167
-0.322751
-0.261261
0.312306
0.48237
-0.0265401
-0.416475
-0.0743574
0.478556
0.402138
-0.169376
-0.343811
0.131458
0.472991
0.13114
-0.3104
-0.0989124
0.45782
0.492832
-0.0534885
-0.341826
0.0520814
0.462797
0.220287
-0.257774
0.389347
0.563025
0.497867
0.251915
0.211576
0.455172
0.580345
0.334929
0.0705247
0.209088
0.537021
0.510095
0.144279
0.0172666
0.339779
0.595261
0.357862
-0.00562436
0.0857458
0.492815
0.56451
0.178362
-0.0553388
0.23652
0.593107
0.447293
0.028979
0.000854773
0.408053
0.605488
0.279549
-0.0557647
0.127695
0.542492
0.540691
0.130737
-0.0400501
0.295889
0.604559
0.394116
-0.00155831
0.0488102
0.469245
0.601656
0.24908
-0.0294975
0.194148
0.55986
0.489612
0.0945582
0.00686421
0.374782
0.619679
0.366195
0.0355521
0.155365
0.523635
0.538075
0.15647
-0.0157657
0.308633
0.61487
0.409266
0.0179513
0.51422
0.353189
0.407084
0.578169
0.599714
0.471784
0.41957
0.504492
0.569103
0.530349
0.48279
0.503597
0.542518
0.536234
0.510175
0.512086
0.528403
0.527839
0.517582
0.520636
0.529048
0.523754
0.513357
0.517302
0.52975
0.528476
0.515298
0.512507
0.52505
0.532075
0.522348
0.511904
0.515004
0.523488
0.523836
0.51799
0.517019
0.523449
0.526101
0.516888
0.507316
0.509737
0.515161
0.515963
0.522088
0.529439
0.519699
0.500558
0.494205
0.503096
0.515448
0.517886
0.511234
0.513426
0.519543
0.507353
0.489071
0.486106
0.491236
0.502777
0.525008
0.536555
0.513007
0.47313
0.255416
-0.200282
-0.0648679
0.438607
0.496462
0.0382798
-0.167626
0.218484
0.580975
0.363619
-0.0524027
0.0115321
0.451431
0.572216
0.200104
-0.0569609
0.212422
0.582131
0.472102
0.06413
0.00725806
0.39192
0.612354
0.323175
-0.017103
0.128696
0.531005
0.555816
0.163928
-0.0271667
0.284516
0.609769
0.435648
0.0337927
0.0353756
0.436944
0.6046
0.274771
-0.0297701
0.173262
0.564573
0.524755
0.108685
-0.0343389
0.321031
0.613976
0.381849
-0.0013076
0.0777388
0.491931
0.578238
0.190644
-0.0638062
0.216755
0.585837
0.462044
0.0627872
0.0427158
0.433987
0.606687
0.287765
-0.00447506
0.19699
0.55783
0.199496
-0.319954
-0.186565
0.366612
0.415273
-0.139915
-0.402527
0.0543959
0.492334
0.199517
-0.356803
-0.285043
0.299694
0.462528
-0.0550545
-0.423739
-0.0541531
0.467706
0.313333
-0.271301
-0.358066
0.192193
0.510887
0.0950381
-0.397635
-0.188728
0.39301
0.430285
-0.136028
-0.413926
0.0346682
0.504902
0.257643
-0.31683
-0.313064
0.262398
0.500526
0.0250578
-0.41267
-0.119771
0.44538
0.394376
-0.193512
-0.394662
0.104792
0.512196
0.184192
-0.349531
-0.231624
0.352632
0.469407
-0.0739923
-0.417827
-0.0142662
0.501331
0.319659
-0.253616
-0.289204
0.268249
0.507827
0.0282774
-0.402292
-0.087763
0.460387
0.452786
0.1853
0.254459
0.554902
0.576222
0.243587
0.0753098
0.34478
0.61085
0.415646
0.0459422
0.0887789
0.478708
0.584492
0.22138
-0.0400708
0.216868
0.583937
0.472575
0.0543127
-0.00916271
0.383691
0.611234
0.312046
-0.0421431
0.107881
0.526041
0.553202
0.146803
-0.0530004
0.268106
0.604915
0.428258
0.0178285
0.0214122
0.433803
0.60413
0.262888
-0.0524859
0.154505
0.557927
0.524137
0.10932
-0.0300706
0.32605
0.612692
0.375326
-0.00778228
0.0729622
0.487687
0.574975
0.199768
-0.0339656
0.250106
0.603543
0.460882
0.0388098
0.00751292
0.417029
0.595142
0.231362
-0.0996024
0.139466
0.558423
0.440276
0.588627
0.554082
0.440061
0.443842
0.541914
0.574464
0.512694
0.471491
0.503913
0.543946
0.537019
0.51211
0.510245
0.5226
0.525647
0.521592
0.521982
0.522891
0.519152
0.517579
0.522912
0.526502
0.520903
0.514441
0.517547
0.525408
0.525794
0.518894
0.515792
0.520364
0.524538
0.521475
0.515783
0.516426
0.52304
0.525792
0.520661
0.515351
0.516197
0.519573
0.51961
0.517355
0.518223
0.522482
0.523996
0.518952
0.511136
0.508651
0.51438
0.522391
0.528369
0.527649
0.515904
0.505505
0.501121
0.488935
0.486445
0.51912
0.545243
0.5134
0.468928
0.49464
0.560001
0.0882938
0.538466
0.384276
-0.0924931
-0.102416
0.371198
0.574701
0.207479
-0.114676
0.130597
0.551382
0.488887
0.063556
-0.0361132
0.348377
0.609874
0.343382
-0.0199156
0.0972383
0.510119
0.568938
0.183619
-0.0362865
0.256363
0.601095
0.455117
0.0482338
0.0214004
0.417536
0.612957
0.298864
-0.0308965
0.142784
0.545972
0.543194
0.139223
-0.0286483
0.304922
0.614936
0.412726
0.0168016
0.0517174
0.462204
0.599247
0.24619
-0.0373319
0.197205
0.575367
0.497307
0.0926759
0.0124547
0.389024
0.616747
0.320044
-0.0306246
0.125088
0.532834
0.54926
0.177218
0.0370478
0.358918
0.62477
0.422109
0.109127
0.0236111
0.498712
0.287311
-0.294087
-0.318703
0.245601
0.481104
0.00212404
-0.420683
-0.108172
0.43695
0.338831
-0.246143
-0.383631
0.146397
0.503987
0.123838