# vtk DataFile Version 3.0
PFC simulation results
ASCII
DATASET STRUCTURED_POINTS
DIMENSIONS 128 128 1
ORIGIN 0 0 0
SPACING 1 1 1
POINT_DATA 16384
SCALARS psi double
LOOKUP_TABLE default
0.000339502
-0.0158147
-0.0235044
-0.0201212
-0.00854914
0.0045871
0.0122937
0.0104219
-0.000719212
-0.0168106
-0.0315025
-0.0388961
-0.0355718
-0.0216227
-0.000554695
0.0218344
0.0393322
0.0474731
0.0452788
0.0358199
0.0251773
0.0200861
0.0252748
0.0417836
0.0670809
0.0967943
0.126946
0.155338
0.181346
0.204495
0.222984
0.233392
0.232
0.217115
0.19102
0.160188
0.133226
0.117329
0.115006
0.122875
0.133158
0.136998
0.127863
0.103504
0.0659308
0.0199902
-0.0283574
-0.0731346
-0.108663
-0.129671
-0.131957
-0.113906
-0.0782522
-0.0328426
0.0107207
0.0406345
0.0493638
0.0369267
0.0111342
-0.0157945
-0.0329296
-0.0358381
-0.028541
-0.0210622
-0.0236528
-0.0405504
-0.0665643
-0.0885118
-0.0911318
-0.0648151
-0.0115066
0.0542468
0.110116
0.134779
0.116552
0.0580461
-0.0247324
-0.108123
-0.168932
-0.191628
-0.172115
-0.117554
-0.0431609
0.0325825
0.0927517
0.125629
0.126686
0.0989853
0.0521718
0.000153503
-0.0423109
-0.06352
-0.0581389
-0.0286075
0.0161837
0.0646086
0.106761
0.137487
0.15665
0.166915
0.170704
0.168204
0.157443
0.136105
0.103728
0.0628507
0.0184223
-0.0239939
-0.0599986
-0.0870275
-0.10378
-0.109249
-0.102462
-0.0834236
-0.05466
-0.0220349
0.00631693
0.022952
0.0245758
0.0139578
-0.00107089
-0.0113111
-0.0107565
0.000420374
0.0161197
0.0276947
0.0286106
0.0178559
-0.00736909
-0.0320843
-0.0403022
-0.0305818
-0.0103482
0.00858094
0.0163603
0.00991754
-0.00612165
-0.0224199
-0.0298511
-0.0236871
-0.00518294
0.0196896
0.0432215
0.0590391
0.0640906
0.0591837
0.0483337
0.0373664
0.0321545
0.0368319
0.0524462
0.0765906
0.104347
0.130299
0.150756
0.165058
0.175249
0.184268
0.193695
0.202348
0.206616
0.202409
0.187747
0.164523
0.138386
0.116629
0.105098
0.105731
0.115885
0.129606
0.139955
0.141226
0.130225
0.10649
0.0718695
0.0299733
-0.0142761
-0.0551301
-0.0868302
-0.104839
-0.107162
-0.0951382
-0.0731444
-0.0471401
-0.0226413
-0.00306773
0.0107525
0.0197644
0.0251046
0.0267599
0.0233796
0.0134835
-0.00261047
-0.0213593
-0.0361642
-0.0394953
-0.0263241
0.0025758
0.0391438
0.0696282
0.0792896
0.0584867
0.00742251
-0.0626306
-0.132347
-0.180689
-0.192155
-0.16208
-0.0981356
-0.017786
0.0573296
0.108094
0.123295
0.102016
0.0527725
-0.00977134
-0.0691798
-0.111414
-0.12786
-0.11678
-0.0830462
-0.0361797
0.0129499
0.0557566
0.0884605
0.112366
0.131854
0.151238
0.172147
0.192685
0.208536
0.215145
0.209619
0.191387
0.161607
0.122175
0.0753703
0.0245536
-0.0247673
-0.0648867
-0.0878422
-0.0889074
-0.0697858
-0.0393066
-0.0104875
0.00512843
0.00306529
-0.011751
-0.0275304
-0.0319581
-0.019025
0.00741226
0.0354191
0.0512595
0.0467432
0.0236134
-0.018125
-0.0429501
-0.0458597
-0.0282476
-0.00178605
0.018516
0.0226338
0.0106019
-0.00821709
-0.0208573
-0.0179815
0.00138635
0.0298824
0.0560374
0.0700319
0.0679008
0.0524476
0.0311026
0.0123491
0.0025678
0.00438664
0.0165996
0.03511
0.0543195
0.0686471
0.0740362
0.0692159
0.0562649
0.0400326
0.0263719
0.0197832
0.0215192
0.0290932
0.0374975
0.0416195
0.0387356
0.0298747
0.0193711
0.0128528
0.0147135
0.026299
0.04554
0.0679704
0.0884508
0.102754
0.108412
0.104715
0.0921175
0.0715779
0.0442218
0.0115531
-0.0239308
-0.0581347
-0.0853375
-0.0991862
-0.0947062
-0.0706875
-0.031357
0.0137705
0.0524073
0.0737407
0.0726562
0.0520224
0.0218932
-0.0043023
-0.015111
-0.00562835
0.0206501
0.0533322
0.0790597
0.0860723
0.0679315
0.0255466
-0.0329777
-0.0944685
-0.143954
-0.16833
-0.159838
-0.118572
-0.0531854
0.0206801
0.0842039
0.120655
0.120446
0.0840787
0.0218781
-0.0493721
-0.111681
-0.151098
-0.161194
-0.143919
-0.108005
-0.0656746
-0.0286313
-0.00448178
0.00529359
0.0050873
0.00277284
0.0062667
0.0205606
0.0463718
0.080675
0.118483
0.154724
0.185214
0.206445
0.214871
0.206819
0.179771
0.134698
0.0779847
0.0211138
-0.0227752
-0.0443426
-0.0426868
-0.0262822
-0.0091138
-0.00358479
-0.0138839
-0.0336233
-0.0493749
-0.0484042
-0.0263741
0.0093873
0.0431263
0.0588376
0.0488803
0.0182141
-0.0286296
-0.0422075
-0.0338619
-0.00920215
0.017568
0.0319047
0.0271992
0.00833893
-0.0113891
-0.0181296
-0.00544536
0.0220501
0.0512595
0.0676457
0.0626599
0.0376041
0.0022982
-0.0301782
-0.0495555
-0.0522258
-0.0415425
-0.0252453
-0.0118643
-0.00789635
-0.0165807
-0.0379884
-0.0696285
-0.107029
-0.144343
-0.175333
-0.194834
-0.200287
-0.192632
-0.176016
-0.156269
-0.138673
-0.126001
-0.117713
-0.110683
-0.101031
-0.0860995
-0.0655882
-0.0413598
-0.0161604
0.00793204
0.030359
0.0516504
0.0718835
0.0889646
0.0980009
0.0926742
0.0684898
0.0265465
-0.0243001
-0.0687755
-0.090447
-0.0790714
-0.0365381
0.0220368
0.0736164
0.097218
0.0838583
0.0414182
-0.00832597
-0.0396351
-0.0351298
0.00560286
0.0653966
0.117247
0.136454
0.111155
0.0468823
-0.0361706
-0.111671
-0.157225
-0.161369
-0.125504
-0.0615034
0.013112
0.0802422
0.125048
0.138375
0.118115
0.0695114
0.00415455
-0.0625372
-0.115096
-0.142168
-0.139704
-0.112012
-0.0702773
-0.02904
-0.00171111
0.00344831
-0.0144102
-0.0489981
-0.0895731
-0.124872
-0.146568
-0.150899
-0.138212
-0.111174
-0.0728947
-0.0260231
0.0267565
0.0813153
0.130994
0.16714
0.181691
0.170873
0.138003
0.0934394
0.0509359
0.0217536
0.00957831
0.00921711
0.0100832
0.00273407
-0.015191
-0.0371729
-0.0514297
-0.0480517
-0.0255463
0.00716599
0.0347981
0.0437669
0.0297641
0.000419398
-0.0332609
-0.0261731
-0.0043926
0.0221802
0.0401693
0.0402211
0.0226265
-0.00235917
-0.0199671
-0.0192278
0.000554878
0.0289253
0.0495966
0.0490395
0.0235879
-0.0187297
-0.0623994
-0.0921603
-0.100049
-0.0883067
-0.0672598
-0.0498822
-0.0461529
-0.0599001
-0.0890477
-0.128188
-0.171434
-0.213985
-0.252161
-0.282783
-0.302927
-0.310467
-0.305026
-0.288606
-0.265302
-0.240027
-0.21677
-0.197271
-0.180816
-0.165295
-0.148871
-0.131254
-0.113715
-0.0977359
-0.0831147
-0.0669049
-0.0443102
-0.0115935
0.0303227
0.073779
0.105769
0.113126
0.0895407
0.0408363
-0.0150084
-0.0544544
-0.0593445
-0.026814
0.0275105
0.0758159
0.0916834
0.0641705
0.004798
-0.0568441
-0.0874779
-0.0674024
-0.00158039
0.0814265
0.142649
0.151359
0.09956
0.00576314
-0.0932999
-0.159129
-0.167687
-0.11773
-0.0289614
0.0676829
0.142592
0.17707
0.166871
0.120338
0.0535087
-0.0155018
-0.0709967
-0.102337
-0.105036
-0.0809025
-0.0374881
0.0133066
0.0576447
0.0829838
0.0813559
0.0515858
-0.00050505
-0.0642122
-0.127677
-0.181622
-0.22138
-0.246507
-0.258601
-0.258803
-0.246386
-0.219167
-0.175508
-0.116845
-0.0492746
0.0170366
0.0707908
0.103658
0.113484
0.10487
0.0866864
0.0677365
0.0528725
0.0416881
0.0304084
0.015689
-0.00212742
-0.0184305
-0.0269182
-0.0237943
-0.0109107
0.00434915
0.0127597
0.00857749
-0.00665615
-0.0243291
-0.0261435
0.00419607
0.0347907
0.0535529
0.0526774
0.0326799
0.00278453
-0.02301
-0.032646
-0.0222649
0.00134243
0.0236973
0.0298007
0.0119152
-0.0261405
-0.0705306
-0.104052
-0.114439
-0.100062
-0.070294
-0.0406635
-0.025497
-0.0318521
-0.0575953
-0.0940346
-0.131057
-0.161668
-0.183719
-0.198651
-0.208843
-0.215495
-0.218133
-0.21555
-0.207235
-0.194241
-0.178968
-0.164035
-0.15096
-0.139553
-0.128518
-0.116964
-0.105813
-0.0978979
-0.0962494
-0.101273
-0.108606
-0.109501
-0.0943823
-0.0583299
-0.00562008
0.0497623
0.0890529
0.0974779
0.0725695
0.0271623
-0.0156251
-0.0338535
-0.018885
0.0188559
0.0545751
0.0625929
0.0315032
-0.0276578
-0.0855264
-0.109508
-0.0819571
-0.0113716
0.0699478
0.121402
0.114802
0.0491981
-0.0475773
-0.131564
-0.163432
-0.126492
-0.0333767
0.0806252
0.173755
0.21525
0.195777
0.127836
0.0382118
-0.0433864
-0.0945993
-0.105802
-0.0798357
-0.0280046
0.0349503
0.0948121
0.140095
0.163035
0.160181
0.132794
0.086645
0.0306068
-0.0259819
-0.0763227
-0.1181
-0.153278
-0.185847
-0.218686
-0.25115
-0.278517
-0.293565
-0.289526
-0.263084
-0.216099
-0.155341
-0.0903762
-0.0306604
0.0168601
0.0487624
0.0648422
0.0671716
0.0592138
0.045275
0.0300804
0.0180616
0.0122069
0.0128574
0.0172217
0.0202355
0.0167389
0.00418053
-0.0154572
-0.0357097
-0.0479765
-0.0453262
-0.00418454
0.0426861
0.0704951
0.0693907
0.0423147
0.0028301
-0.0315271
-0.0471857
-0.0402645
-0.0177622
0.00611184
0.0167448
0.00602548
-0.0237418
-0.0607064
-0.0887721
-0.0949369
-0.0752889
-0.03689
0.00532929
0.0352522
0.0427112
0.0276743
-0.000463068
-0.0279244
-0.0431485
-0.0414838
-0.0258867
-0.00398081
0.0162935
0.0299654
0.0359791
0.036078
0.0328207
0.0279594
0.0219171
0.0144198
0.00570365
-0.00266223
-0.00816614
-0.00904618
-0.00633409
-0.0046597
-0.0106341
-0.0290731
-0.0589648
-0.0917869
-0.113914
-0.112691
-0.0834124
-0.0333362
0.020136
0.0570446
0.0646995
0.0443882
0.0108016
-0.0161046
-0.0225159
-0.0087468
0.0112293
0.0188008
0.00302576
-0.0313565
-0.0655129
-0.077373
-0.0555899
-0.00815304
0.040045
0.0601835
0.0360611
-0.0251828
-0.09448
-0.134407
-0.118136
-0.0436714
0.0639077
0.163324
0.215785
0.201763
0.128088
0.0236245
-0.0735171
-0.131333
-0.134946
-0.089212
-0.0134624
0.0679136
0.134436
0.174531
0.185895
0.173009
0.144051
0.108455
0.0750944
0.0506303
0.0379008
0.034935
0.0354041
0.0307509
0.0133246
-0.0207029
-0.0697571
-0.127188
-0.183341
-0.228454
-0.255136
-0.259559
-0.241408
-0.203331
-0.150635
-0.0913081
-0.0355423
0.00625187
0.0270017
0.0265244
0.0126885
-0.0013541
-0.00324707
0.0120181
0.0387524
0.0628089
0.0687902
0.0485865
0.0066517
-0.0410549
-0.0743115
-0.0783791
-0.0511474
0.0303624
0.0791859
0.0890903
0.0582188
0.00429923
-0.0457869
-0.0700214
-0.0614101
-0.0296949
0.00524033
0.0241367
0.0176545
-0.00998531
-0.0439949
-0.0665033
-0.0646767
-0.0359404
0.0114729
0.0623301
0.100702
0.11627
0.108303
0.0857795
0.0635323
0.0559794
0.0712609
0.108471
0.159026
0.210999
0.253921
0.281797
0.293555
0.291563
0.279455
0.260319
0.235916
0.207128
0.175288
0.143483
0.116616
0.0995759
0.0940942
0.0962413
0.0966623
0.0843202
0.0523126
0.00274032
-0.05236
-0.0952456
-0.11038
-0.0922496
-0.0488798
0.00121008
0.0374475
0.0468114
0.0294826
-0.00246508
-0.0323292
-0.0476204
-0.0454393
-0.0317419
-0.0158144
-0.00412081
0.0024944
0.00685909
0.0106856
0.0110305
0.00128225
-0.0235358
-0.0606087
-0.0967148
-0.112078
-0.0899461
-0.0270348
0.0612855
0.14475
0.190242
0.176657
0.105038
-0.000844064
-0.10367
-0.167609
-0.17239
-0.120097
-0.032425
0.0595569
0.128096
0.158056
0.14942
0.113719
0.0676926
0.0274771
0.00498242
0.00639984
0.0319724
0.0764479
0.13025
0.181539
0.218901
0.233891
0.222667
0.186314
0.129929
0.0609162
-0.0127061
-0.0831417
-0.142624
-0.183136
-0.197504
-0.182422
-0.142044
-0.0893062
-0.0425226
-0.0175295
-0.0191911
-0.0377003
-0.0529803
-0.0457671
-0.00951086
0.044022
0.0896158
0.102104
0.0710434
0.00805554
-0.0578339
-0.0949283
-0.0855502
-0.035247
0.0692165
0.102623
0.0820435
0.0187354
-0.0537041
-0.0985751
-0.0958469
-0.0515246
0.0075598
0.0496271
0.0550908
0.025682
-0.01832
-0.0500438
-0.0500112
-0.0148085
0.0430234
0.102408
0.143732
0.15654
0.142389
0.112924
0.0847424
0.0731631
0.0870446
0.126383
0.183353
0.246009
0.302736
0.345519
0.371081
0.380186
0.37598
0.362155
0.341436
0.314805
0.281893
0.242611
0.199365
0.158314
0.128137
0.116065
0.12305
0.141116
0.155175
0.149182
0.113956
0.0528083
-0.0181529
-0.0759639
-0.10082
-0.085527
-0.0395732
0.0145236
0.0511981
0.0534859
0.0206368
-0.0318535
-0.0795133
-0.0998981
-0.0822153
-0.0315728
0.0332812
0.0875239
0.109999
0.0909372
0.0352146
-0.039162
-0.107093
-0.144944
-0.138114
-0.0856886
-0.00141331
0.089796
0.159054
0.18233
0.148762
0.0656412
-0.0426474
-0.142127
-0.200843
-0.200487
-0.143317
-0.0512819
0.0426037
0.107109
0.124146
0.0936928
0.0310844
-0.0407236
-0.0996568
-0.130375
-0.12632
-0.0888555
-0.0250431
0.0548325
0.139512
0.21859
0.28381
0.329724
0.35367
0.355158
0.334878
0.293854
0.233419
0.156585
0.0703507
-0.012862
-0.0770998
-0.108877
-0.104744
-0.0754666
-0.0427048
-0.0282726
-0.0414423
-0.072326
-0.0965929
-0.0899281
-0.0440873
0.0254308
0.085905
0.105497
0.0724418
0.00354061
-0.0638137
-0.0923077
-0.066054
0.000169919
0.0999135
0.104393
0.0494916
-0.0383002
-0.112836
-0.134675
-0.0931072
-0.0113817
0.0671758
0.103772
0.0848978
0.0279094
-0.0304071
-0.0549194
-0.0305942
0.0314757
0.102231
0.150924
0.159836
0.130378
0.0795566
0.0305413
0.00262468
0.00476828
0.0344042
0.0807976
0.130707
0.173486
0.203577
0.220195
0.225548
0.223091
0.216407
0.208424
0.200522
0.191691
0.178501
0.156731
0.124607
0.0860404
0.0513205
0.0336131
0.0422882
0.076578
0.123416
0.161343
0.169326
0.13676
0.0699411
-0.00863365
-0.069001
-0.0873454
-0.0580302
0.00231799
0.0614988
0.0868243
0.061496
-0.0059796
-0.0843215
-0.133562
-0.124456
-0.0537986
0.0518137
0.146544
0.186341
0.149814
0.0489777
-0.0746576
-0.168199
-0.191411
-0.133959
-0.0189224
0.107717
0.196964
0.216035
0.158804
0.0459072
-0.084246
-0.189958
-0.240054
-0.22268
-0.147898
-0.0437268
0.053644
0.112341
0.115346
0.0650422
-0.0197196
-0.112122
-0.187218
-0.22895
-0.232465
-0.202409
-0.14902
-0.0837675
-0.015835
0.0495614
0.110814
0.168258
0.222375
0.272593
0.316589
0.34987
0.365813
0.356941
0.31798
0.250136
0.164324
0.0800872
0.0184761
-0.00850489
-0.00545835
0.00782215
0.00755274
-0.0189882
-0.064124
-0.10312
-0.109329
-0.072195
-0.0065008
0.054098
0.0766088
0.0494795
-0.00888012
-0.0600979
-0.0691476
-0.026667
0.04399
0.109698
0.0810509
0.000331356
-0.0934926
-0.149782
-0.135547
-0.0551438
0.0512522
0.129905
0.143559
0.0913231
0.00764442
-0.0581866
-0.0699404
-0.0234449
0.0533803
0.117903
0.136402
0.100193
0.0268228
-0.0517713
-0.105991
-0.121191
-0.1012
-0.0631817
-0.0276915
-0.00919486
-0.0115283
-0.0295316
-0.054283
-0.0778638
-0.0952367
-0.103675
-0.101711
-0.0891626
-0.0683597
-0.0453692
-0.029357
-0.0289925
-0.0469892
-0.0761487
-0.100384
-0.101422
-0.0681816
-0.00398431
0.0723326
0.132788
0.152201
0.120726
0.0507639
-0.0263247
-0.0739175
-0.0684663
-0.0128944
0.0628343
0.11573
0.112187
0.0471384
-0.0505726
-0.130758
-0.147469
-0.0844788
0.0331265
0.148752
0.202499
0.162811
0.0444473
-0.0964274
-0.189646
-0.187104
-0.0869524
0.0654602
0.199844
0.255172
0.206624
0.0736879
-0.0907348
-0.224752
-0.283154
-0.251982
-0.149482
-0.0165671
0.0993902
0.161388
0.153944
0.085617
-0.0169466
-0.120714
-0.198421
-0.236043
-0.233873
-0.202947
-0.159521
-0.119404
-0.0930941
-0.0828358
-0.0827918
-0.0823968
-0.0710946
-0.0419669
0.0068847
0.0724464
0.147145
0.219252
0.274342
0.298862
0.285525
0.238306
0.173437
0.113678
0.077224
0.0674961
0.0710612
0.0662972
0.0380712
-0.0110341
-0.0609539
-0.0865916
-0.074765
-0.0342554
0.00850504
0.0262964
0.00969713
-0.0255339
-0.0482666
-0.0334712
0.0187536
0.0800035
0.090051
0.0354044
-0.0510826
-0.12605
-0.145929
-0.093193
0.0108619
0.115484
0.167933
0.142987
0.0568951
-0.0419721
-0.100645
-0.0913106
-0.0257751
0.0529187
0.0959093
0.0754876
-0.0018745
-0.102085
-0.183653
-0.218914
-0.205168
-0.162411
-0.121149
-0.10705
-0.130031
-0.182761
-0.247899
-0.308264
-0.353347
-0.379714
-0.387568
-0.377382
-0.349041
-0.303732
-0.247071
-0.190753
-0.150097
-0.137244
-0.153428
-0.18557
-0.210318
-0.204168
-0.154981
-0.0695782
0.0264828
0.098412
0.118229
0.0800162
0.00573345
-0.0633751
-0.0872922
-0.0493008
0.0330429
0.115365
0.14985
0.112334
0.0178284
-0.0850844
-0.139794
-0.113907
-0.0195818
0.0907377
0.152859
0.128
0.0267464
-0.0943104
-0.163372
-0.134742
-0.0158815
0.134754
0.238428
0.237968
0.126313
-0.0509066
-0.218168
-0.306723
-0.284269
-0.164479
0.00251164
0.15286
0.235269
0.228619
0.145616
0.0239584
-0.0909598
-0.164325
-0.182595
-0.153285
-0.097206
-0.0390665
-0.000368132
0.00488369
-0.0272702
-0.0899025
-0.167263
-0.239986
-0.291211
-0.310444
-0.294006
-0.243661
-0.165628
-0.0707026
0.0257838
0.106088
0.155069
0.16655
0.147388
0.115466
0.0909519
0.0851561
0.094228
0.102427
0.0932619
0.0611643
0.0156947
-0.0247269
-0.0452326
-0.0442139
-0.0332629
-0.0272256
-0.031676
-0.0376195
-0.0283524
0.0057176
0.0552401
0.0931078
0.0401226
-0.0242661
-0.0901131
-0.121644
-0.094896
-0.0142437
0.0854941
0.155003
0.156996
0.0878867
-0.0185369
-0.108568
-0.138245
-0.0979722
-0.0175762
0.051044
0.0635984
0.00775913
-0.0917271
-0.188747
-0.241707
-0.234047
-0.179653
-0.113326
-0.0727558
-0.0810064
-0.137853
-0.22353
-0.311538
-0.38189
-0.427005
-0.448962
-0.452774
-0.440989
-0.412209
-0.363587
-0.295868
-0.218083
-0.148058
-0.106386
-0.106061
-0.143854
-0.198955
-0.240259
-0.239441
-0.184508
-0.0879723
0.0154329
0.0833045
0.0871998
0.0296975
-0.0540449
-0.113274
-0.109232
-0.0377378
0.0667458
0.148964
0.163648
0.101709
-0.00366733
-0.0953771
-0.1256
-0.084157
-0.00420988
0.0590233
0.0638785
0.00963539
-0.062067
-0.0938789
-0.0511706
0.0526517
0.160519
0.204227
0.145071
-0.00205007
-0.173811
-0.290456
-0.296219
-0.184875
-0.000670966
0.182948
0.29697
0.3053
0.215664
0.0725701
-0.0634958
-0.142474
-0.143726
-0.0789666
0.0191778
0.114076
0.177729
0.195024
0.162436
0.0857008
-0.0220205
-0.14273
-0.257778
-0.35219
-0.416792
-0.44745
-0.443042
-0.404383
-0.335139
-0.243932
-0.14542
-0.0580379
0.00217013
0.0290198
0.0300432
0.0229801
0.0258896
0.046734
0.0791175
0.106806
0.113894
0.0940612
0.0533694
0.00575621
-0.0347967
-0.0599805
-0.0677507
-0.0590815
-0.0352333
0.00114209
0.0421272
0.0726888
0.0752376
-0.0323156
-0.0865296
-0.106764
-0.0776867
-0.00540259
0.0818762
0.144349
0.149146
0.0882045
-0.0147496
-0.113641
-0.16269
-0.140827
-0.0640128
0.0223987
0.068133
0.045826
-0.0340773
-0.129947
-0.192708
-0.191998
-0.129982
-0.0376487
0.0419585
0.0742643
0.0477106
-0.0237615
-0.110603
-0.18406
-0.229171
-0.24725
-0.249015
-0.24517
-0.240116
-0.230382
-0.20721
-0.162518
-0.096441
-0.0222139
0.0363082
0.0549241
0.0218555
-0.0540078
-0.143642
-0.20789
-0.214218
-0.153723
-0.0496144
0.0501547
0.0960738
0.0647182
-0.0259237
-0.123836
-0.170663
-0.13445
-0.0282003
0.0962753
0.1764
0.173433
0.0931465
-0.0192534
-0.106463
-0.132233
-0.099659
-0.0434896
-0.00300844
0.00524594
-0.00378371
0.000863094
0.0380548
0.0949012
0.130983
0.104931
0.00548751
-0.13404
-0.248613
-0.275332
-0.187832
-0.011901
0.184781
0.324141
0.35353
0.267022
0.105799
-0.0603513
-0.164045
-0.169126
-0.0825815
0.0545368
0.190454
0.285976
0.324842
0.310052
0.254423
0.172783
0.0779588
-0.0205165
-0.116298
-0.205387
-0.284847
-0.351346
-0.399992
-0.424124
-0.416933
-0.375217
-0.303941
-0.218414
-0.140719
-0.0901461
-0.072595
-0.0763445
-0.078179
-0.0568701
-0.00600639
0.0613733
0.119045
0.141451
0.117415
0.0562028
-0.016751
-0.0718297
-0.0886657
-0.0642683
-0.0128506
0.0412033
0.0735413
0.0692301
0.028557
-0.11287
-0.139911
-0.0985339
-0.0040842
0.101655
0.16998
0.167605
0.0920246
-0.0263656
-0.13729
-0.193263
-0.171475
-0.0851469
0.0219113
0.0965869
0.103472
0.0433132
-0.0474718
-0.116638
-0.12409
-0.061617
0.045562
0.153802
0.222761
0.232697
0.190684
0.124643
0.0682383
0.0439744
0.0541243
0.0840706
0.113546
0.127126
0.119328
0.0953783
0.0695814
0.0604639
0.0816986
0.132228
0.192636
0.231999
0.222242
0.152701
0.0385925
-0.0808465
-0.156947
-0.155402
-0.0774862
0.0351704
0.119137
0.123539
0.0399957
-0.0902621
-0.197313
-0.220868
-0.14358
-0.000692694
0.138367
0.207254
0.177651
0.0713723
-0.0551828
-0.143646
-0.163726
-0.122793
-0.0523761
0.0153448
0.0641253
0.0937579
0.107269
0.0990742
0.0563643
-0.0264989
-0.132743
-0.221215
-0.243097
-0.169156
-0.0108953
0.178193
0.324324
0.367208
0.287455
0.115742
-0.0788219
-0.218109
-0.249219
-0.166083
-0.00900722
0.157487
0.277324
0.325899
0.311581
0.261575
0.204997
0.161291
0.135812
0.121579
0.105427
0.0753208
0.0251832
-0.0439825
-0.124885
-0.20478
-0.266914
-0.2948
-0.279857
-0.228858
-0.16486
-0.117642
-0.107151
-0.130303
-0.160878
-0.164052
-0.11748
-0.0265788
0.0752827
0.143367
0.146525
0.085626
-0.00555864
-0.0780755
-0.094677
-0.0501044
0.0267756
0.0896667
0.100694
0.0508711
-0.0352908
-0.184756
-0.175725
-0.0703265
0.080674
0.200668
0.22814
0.147385
-0.00468543
-0.157487
-0.24228
-0.224169
-0.116076
0.0288516
0.143584
0.179789
0.130135
0.0305318
-0.0590601
-0.0862454
-0.0325071
0.0801929
0.204398
0.293012
0.320588
0.291138
0.232869
0.184026
0.175134
0.215252
0.289757
0.370525
0.430457
0.452584
0.431607
0.373027
0.293555
0.219768
0.179807
0.189359
0.240796
0.303683
0.337215
0.308622
0.210254
0.0687053
-0.0614105
-0.1224
-0.0865896
0.0231924
0.141222
0.193644
0.140556
-6.92345e-05
-0.160041
-0.257206
-0.240267
-0.115912
0.0548216
0.18864
0.224229
0.152404
0.0164238
-0.114228
-0.180972
-0.162613
-0.0781033
0.0300211
0.118216
0.157982
0.139755
0.0692908
-0.0354465
-0.145275
-0.222963
-0.232623
-0.15515
-0.00292022
0.177219
0.318889
0.363423
0.285848
0.108159
-0.106131
-0.276672
-0.340164
-0.276789
-0.118421
0.0656138
0.202368
0.250474
0.214298
0.132377
0.0532711
0.0145402
0.0321403
0.0991004
0.191096
0.277447
0.333028
0.344645
0.310306
0.235986
0.134696
0.0274601
-0.0589499
-0.101523
-0.0945033
-0.0568943
-0.0252657
-0.0330079
-0.0881998
-0.165134
-0.216941
-0.203345
-0.117078
0.0073257
0.109902
0.139829
0.0868719
-0.0109586
-0.0893941
-0.0973025
-0.0287757
0.0725081
0.13984
0.124865
0.028105
-0.0993636
-0.233416
-0.189659
-0.0318361
0.156034
0.26967
0.244364
0.0896101
-0.116515
-0.270202
-0.297716
-0.189864
-0.00250055
0.173775
0.260737
0.229522
0.110588
-0.0242318
-0.0999514
-0.0771385
0.0306429
0.16872
0.274076
0.30785
0.269381
0.190037
0.115652
0.0866761
0.122603
0.215586
0.336198
0.448569
0.524986
0.551075
0.522891
0.444407
0.330155
0.208427
0.116279
0.0845486
0.121586
0.206139
0.293405
0.332365
0.28896
0.16672
0.0131584
-0.0989706
-0.111608
-0.018271
0.127305
0.238504
0.244392
0.129813
-0.0549952
-0.219878
-0.283297
-0.215724
-0.0539404
0.118951
0.218216
0.201938
0.0892719
-0.0542093
-0.153664
-0.163552
-0.0864004
0.0341764
0.138084
0.177064
0.133177
0.0227995
-0.110891
-0.213668
-0.2397
-0.168646
-0.0161906
0.167043
0.312347
0.359787
0.282435
0.099226
-0.128793
-0.320905
-0.409025
-0.364282
-0.209098
-0.010932
0.145814
0.199986
0.141634
0.0109811
-0.12766
-0.217554
-0.227815
-0.155524
-0.0203354
0.143936
0.301026
0.4235
0.497
0.516832
0.48339
0.402664
0.291512
0.18012
0.10321
0.0809778
0.103034
0.130183
0.116713
0.0403607
-0.0792841
-0.187649
-0.2265
-0.171318
-0.0505666
0.067323
0.115
0.0698289
-0.0301307
-0.109904
-0.107276
-0.0156785
0.10864
0.181468
0.145849
0.0114366
-0.14699
-0.249706
-0.181803
0.0060156
0.205283
0.295691
0.218362
0.0103607
-0.215512
-0.336343
-0.288231
-0.0966232
0.140197
0.30579
0.327677
0.209241
0.0225542
-0.1312
-0.176019
-0.0986981
0.0494038
0.185001
0.240807
0.198082
0.0873482
-0.0349211
-0.115444
-0.124074
-0.0600645
0.0526356
0.178046
0.283806
0.350967
0.372932
0.34846
0.278112
0.168514
0.0398208
-0.0734406
-0.133279
-0.115417
-0.0231128
0.108378
0.220543
0.255283
0.18631
0.0411207
-0.105167
-0.169031
-0.10864
0.0486358
0.218508
0.305987
0.258108
0.0922652
-0.112264
-0.255824
-0.271821
-0.16038
0.014416
0.16052
0.208319
0.145708
0.0193026
-0.0953173
-0.13647
-0.0878517
0.0168916
0.115388
0.150522
0.0990256
-0.0178502
-0.144156
-0.215137
-0.187436
-0.0601377
0.121273
0.281871
0.34973
0.286952
0.10624
-0.131597
-0.341175
-0.447656
-0.414745
-0.257326
-0.0388858
0.150424
0.232395
0.176694
0.0137579
-0.183656
-0.340262
-0.411274
-0.38904
-0.291253
-0.147141
0.0129826
0.165522
0.296741
0.399394
0.466316
0.487541
0.455229
0.374727
0.272827
0.191576
0.165344
0.195736
0.245108
0.257029
0.192154
0.0570729
-0.0931784
-0.18526
-0.174342
-0.0758613
0.040837
0.0963841
0.0552786
-0.0484997
-0.133661
-0.128301
-0.0223795
0.12069
0.203657
0.161347
0.00789583
-0.166293
-0.231052
-0.155698
0.0339779
0.218766
0.275988
0.159249
-0.0703418
-0.278882
-0.34189
-0.217746
0.0307413
0.272385
0.383605
0.314575
0.108858
-0.12305
-0.264781
-0.25644
-0.121226
0.0522061
0.162048
0.150857
0.0308231
-0.134094
-0.270705
-0.333399
-0.315966
-0.242527
-0.150115
-0.0707769
-0.0196476
0.0050916
0.0119402
0.00465429
-0.0220719
-0.0771952
-0.161213
-0.256265
-0.327759
-0.33815
-0.265842
-0.121968
0.0433092
0.156394
0.158598
0.0459485
-0.118892
-0.237269
-0.231902
-0.0925701
0.116386
0.289708
0.338702
0.238034
0.0374686
-0.163935
-0.270261
-0.239029
-0.0996837
0.0666069
0.173457
0.175919
0.0900671
-0.0227019
-0.0945324
-0.0898603
-0.0223471
0.0571946
0.0928643
0.0568733
-0.0338859
-0.125931
-0.158071
-0.0959197
0.0459786
0.206225
0.304588
0.281797
0.129412
-0.102751
-0.326303
-0.454071
-0.436375
-0.277922
-0.0369883
0.193816
0.3242
0.303972
0.14482
-0.0838068
-0.290176
-0.408929
-0.426002
-0.368182
-0.277209
-0.187663
-0.114505
-0.0519823
0.0154059
0.0966743
0.183965
0.253548
0.277827
0.244289
0.170804
0.102954
0.0886101
0.144411
0.238971
0.307686
0.29216
0.17968
0.0174468
-0.111697
-0.142063
-0.0705542
0.0392939
0.100168
0.0628472
-0.0474081
-0.14733
-0.15526
-0.0520279
0.100472
0.198349
0.167809
0.0195805
-0.152403
-0.181213
-0.117187
0.0461061
0.194665
0.216742
0.0817679
-0.134116
-0.29379
-0.288084
-0.105373
0.159109
0.358824
0.383597
0.219026
-0.0494346
-0.284291
-0.373824
-0.289815
-0.0964931
0.0867732
0.154263
0.0730449
-0.106264
-0.289473
-0.399116
-0.411684
-0.354802
-0.280727
-0.236391
-0.241658
-0.283467
-0.328684
-0.346658
-0.326207
-0.280689
-0.241745
-0.241399
-0.289815
-0.364282
-0.417218
-0.398796
-0.285786
-0.105076
0.0669098
0.142062
0.0770835
-0.0925175
-0.26718
-0.340092
-0.258068
-0.0497914
0.188182
0.341688
0.33969
0.188796
-0.0323676
-0.214089
-0.27387
-0.197391
-0.0394968
0.110537
0.179422
0.146985
0.0494591
-0.0484657
-0.0937703
-0.0737206
-0.0175737
0.0268909
0.0261006
-0.0171592
-0.0651903
-0.0699053
-0.00602223
0.107176
0.210227
0.234321
0.141178
-0.0506832
-0.268288
-0.417668
-0.429139
-0.287357
-0.0381522
0.227374
0.410091
0.443455
0.318543
0.090253
-0.143139
-0.290433
-0.315766
-0.247508
-0.149956
-0.0857917
-0.0892365
-0.153451
-0.235483
-0.282533
-0.263909
-0.185604
-0.0846116
-0.0104705
0.00181844
-0.0437896
-0.101563
-0.110536
-0.035447
0.104969
0.242725
0.299986
0.239796
0.09433
-0.0504145
-0.109638
-0.0583511
0.050835
0.125359
0.10018
-0.0139728
-0.137
-0.177126
-0.0988172
0.0485644
0.162944
0.162024
0.0439936
-0.107651
-0.109245
-0.073335
0.0404521
0.138526
0.130955
0.00263246
-0.167959
-0.258738
-0.18898
0.0214812
0.2576
0.378713
0.305228
0.0648621
-0.221394
-0.408246
-0.408553
-0.235616
0.00667088
0.180438
0.193185
0.048307
-0.163547
-0.325992
-0.369469
-0.302223
-0.190077
-0.112266
-0.121477
-0.222006
-0.369629
-0.495548
-0.542809
-0.49107
-0.363014
-0.216879
-0.120593
-0.115556
-0.194674
-0.304756
-0.369126
-0.325957
-0.169193
0.0341181
0.174326
0.167116
0.00946358
-0.214442
-0.37987
-0.391803
-0.23364
0.0256445
0.264432
0.371772
0.3046
0.105665
-0.120211
-0.261674
-0.259828
-0.133631
0.0378345
0.162266
0.184429
0.110241
-0.00570873
-0.0967895
-0.122559
-0.0865436
-0.0256813
0.0184616
0.0274936
0.0155973
0.0149264
0.0473487
0.102338
0.137791
0.105846
-0.0118707
-0.182538
-0.330979
-0.377147
-0.278377
-0.0534274
0.220664
0.441317
0.52655
0.446729
0.236224
-0.0132994
-0.190591
-0.223982
-0.119694
0.0484247
0.185378
0.219525
0.123654
-0.0757253
-0.302328
-0.46706
-0.517645
-0.457947
-0.336685
-0.224101
-0.178545
-0.212417
-0.282014
-0.313405
-0.249491
-0.089608
0.101999
0.230395
0.231187
0.116009
-0.0312109
-0.109002
-0.0688112
0.0513688
0.155381
0.159304
0.0524026
-0.0950931
-0.182391
-0.150955
-0.0262584
0.101271
0.142618
0.075433
-0.0404629
-0.0275829
-0.0312043
0.0191066
0.0618514
0.0356662
-0.0628894
-0.166474
-0.182977
-0.0674102
0.134406
0.305133
0.329276
0.168691
-0.107895
-0.359359
-0.454533
-0.345081
-0.0891878
0.177209
0.315297
0.261936
0.0624308
-0.157215
-0.269019
-0.221261
-0.0591091
0.115072
0.203574
0.15506
-0.0218933
-0.26022
-0.459465
-0.534693
-0.454706
-0.252839
-0.0152199
0.158549
0.204017
0.115012
-0.057083
-0.217462
-0.267592
-0.163558
0.0465795
0.241966
0.302011
0.180194
-0.0697521
-0.322113
-0.447818
-0.382153
-0.153474
0.129774
0.331958
0.362447
0.219682
-0.0126515
-0.210916
-0.279336
-0.198593
-0.0280325
0.13262
0.200483
0.152167
0.0284087
-0.0958652
-0.156367
-0.13269
-0.0519511
0.0346042
0.0851724
0.0898298
0.068409
0.0480402
0.038227
0.0225926
-0.0255384
-0.114734
-0.216313
-0.271951
-0.226074
-0.062521
0.17648
0.403293
0.526445
0.492858
0.309903
0.0491701
-0.174626
-0.255682
-0.153647
0.0816475
0.337895
0.504959
0.518473
0.362719
0.0747481
-0.24886
-0.490856
-0.580365
-0.520452
-0.372522
-0.226863
-0.162494
-0.20597
-0.315414
-0.403718
-0.389922
-0.249712
-0.0373919
0.139605
0.189201
0.0990648
-0.0526231
-0.14966
-0.118846
0.0197327
0.168305
0.221427
0.139933
-0.0238473
-0.164029
-0.195358
-0.110077
0.0226382
0.11087
0.106891
0.0368473
0.0508323
0.00353139
-0.0125591
-0.0206265
-0.0518612
-0.104181
-0.132644
-0.0841008
0.0505188
0.210701
0.294486
0.224873
0.00808376
-0.256537
-0.428733
-0.409176
-0.195165
0.113415
0.363872
0.436177
0.306587
0.060602
-0.149839
-0.196885
-0.0539966
0.1965
0.423977
0.52626
0.4616
0.245402
-0.0477063
-0.297433
-0.393713
-0.2939
-0.042359
0.250063
0.464067
0.527297
0.426183
0.202029
-0.0462598
-0.19186
-0.153088
0.0478284
0.290177
0.426595
0.36934
0.132528
-0.176217
-0.409227
-0.457484
-0.303009
-0.0248198
0.23757
0.357777
0.289507
0.0848164
-0.137507
-0.259092
-0.227076
-0.0762531
0.0975541
0.195384
0.170744
0.0498037
-0.0902733
-0.169243
-0.149134
-0.0505011
0.0658009
0.137654
0.136716
0.0780491
0.00194848
-0.0566653
-0.0889631
-0.108693
-0.129592
-0.143859
-0.120961
-0.0300563
0.129397
0.312113
0.442268
0.451466
0.314077
0.0660782
-0.198556
-0.363076
-0.341828
-0.124677
0.207079
0.519085
0.701571
0.706287
0.529742
0.213045
-0.139693
-0.396204
-0.474227
-0.379388
-0.188744
-0.0113778
0.0606573
-0.00659802
-0.172947
-0.340249
-0.403366
-0.312688
-0.110045
0.0884589
0.165483
0.0840145
-0.0858197
-0.214521
-0.203188
-0.0502757
0.148693
0.266444
0.230031
0.0658445
-0.121904
-0.22202
-0.188189
-0.0607944
0.0705284
0.132055
0.111213
0.115566
0.027643
-0.0475311
-0.0946952
-0.118204
-0.11736
-0.0765593
0.0165667
0.141924
0.238376
0.232978
0.0926655
-0.1382
-0.347681
-0.416258
-0.286439
-0.00068607
0.311438
0.501625
0.483326
0.273438
-0.00972314
-0.201477
-0.186203
0.0352009
0.350964
0.614433
0.728848
0.665299
0.442503
0.132569
-0.138079
-0.244631
-0.136412
0.134706
0.443617
0.66494
0.728374
0.616507
0.357525
0.0447959
-0.178738
-0.20157
-0.0183482
0.262037
0.47868
0.51032
0.330697
0.0152017
-0.291014
-0.447144
-0.390111
-0.160724
0.117148
0.300818
0.307566