# vtk DataFile Version 3.0
PFC simulation results
ASCII
DATASET STRUCTURED_POINTS
DIMENSIONS 128 128 1
ORIGIN 0 0 0
SPACING 1 1 1
POINT_DATA 16384
SCALARS psi double
LOOKUP_TABLE default
-0.125544
-0.358749
-0.424256
-0.304391
-0.0682668
0.158491
0.258324
0.1848
-0.0169372
-0.238304
-0.368573
-0.350943
-0.199351
0.0199441
0.225033
0.356789
0.398817
0.372674
0.31933
0.278178
0.271074
0.297698
0.343257
0.391709
0.434954
0.473227
0.509362
0.543021
0.569188
0.581105
0.574904
0.552885
0.523658
0.498931
0.488368
0.495364
0.516357
0.543699
0.569267
0.585775
0.585221
0.556619
0.486169
0.362143
0.184203
-0.027713
-0.233454
-0.38586
-0.449851
-0.416046
-0.304373
-0.156832
-0.0196038
0.076942
0.127256
0.145626
0.153374
0.164199
0.174811
0.167274
0.119656
0.0189691
-0.125467
-0.278986
-0.398591
-0.453381
-0.430272
-0.332696
-0.179119
0.00348736
0.186583
0.340171
0.433303
0.442283
0.35998
0.198321
-0.0139191
-0.234735
-0.416582
-0.518807
-0.51844
-0.414536
-0.228262
-0.000574257
0.215972
0.372255
0.437499
0.406508
0.297948
0.14608
-0.0104815
-0.137561
-0.208297
-0.203368
-0.115342
0.0424975
0.233239
0.40916
0.53342
0.592698
0.593936
0.553823
0.490313
0.417772
0.343729
0.266842
0.177685
0.0639516
-0.080207
-0.244739
-0.401135
-0.510385
-0.537414
-0.466662
-0.316547
-0.143601
-0.0216269
-0.00171959
-0.0819532
-0.205702
-0.286762
-0.251014
-0.0789787
0.173885
0.400672
0.498925
0.417162
0.177007
-0.181414
-0.354185
-0.361838
-0.215696
0.00139693
0.174128
0.215167
0.111985
-0.0692508
-0.222291
-0.260131
-0.157871
0.0430593
0.262497
0.423328
0.485002
0.45244
0.36422
0.271876
0.217804
0.219009
0.264321
0.326103
0.378477
0.410264
0.425908
0.436841
0.451217
0.468656
0.48168
0.481154
0.461884
0.425663
0.380796
0.33872
0.309757
0.300464
0.313522
0.34874
0.402826
0.467175
0.525448
0.554118
0.52831
0.432664
0.27301
0.0804455
-0.0994006
-0.227776
-0.290387
-0.30044
-0.286829
-0.27399
-0.265036
-0.239144
-0.164815
-0.0234412
0.166942
0.34764
0.445789
0.408772
0.226006
-0.055645
-0.337104
-0.514236
-0.528951
-0.383151
-0.130667
0.143666
0.361488
0.477579
0.4789
0.376472
0.201092
-0.00618505
-0.206755
-0.369607
-0.470393
-0.49252
-0.430769
-0.293509
-0.102933
0.105792
0.288819
0.403759
0.422459
0.340088
0.177112
-0.0265895
-0.224681
-0.378764
-0.465589
-0.474927
-0.405259
-0.265041
-0.0781192
0.117317
0.282669
0.396396
0.459879
0.489438
0.50423
0.517956
0.535293
0.551316
0.553083
0.523272
0.446113
0.315832
0.145194
-0.0327936
-0.17542
-0.248844
-0.24477
-0.188359
-0.131401
-0.126716
-0.195396
-0.310523
-0.40833
-0.418001
-0.296763
-0.0597501
0.213763
0.415552
0.464084
0.338851
0.0885094
-0.212916
-0.258321
-0.182065
-0.0279968
0.123005
0.193136
0.149458
0.0226201
-0.109901
-0.166776
-0.107113
0.05027
0.240678
0.38863
0.443136
0.394901
0.272553
0.126718
0.00950089
-0.0451513
-0.0330589
0.021964
0.0827721
0.119013
0.121051
0.0999757
0.0760011
0.0646265
0.0690382
0.0810825
0.0876555
0.0779023
0.0480165
0.00235005
-0.0488414
-0.0933021
-0.119998
-0.120341
-0.0881818
-0.0206337
0.079096
0.198155
0.313212
0.395377
0.420675
0.381637
0.292703
0.183244
0.0800607
-0.00861197
-0.0950597
-0.197511
-0.318277
-0.430319
-0.482962
-0.42364
-0.227791
0.0708291
0.375398
0.569204
0.572249
0.370613
0.0314704
-0.305892
-0.496292
-0.463966
-0.227118
0.114878
0.425916
0.599926
0.595269
0.426708
0.152571
-0.142291
-0.380102
-0.51639
-0.540019
-0.462306
-0.30958
-0.116515
0.0815461
0.253129
0.371558
0.416389
0.377153
0.257529
0.077514
-0.128528
-0.319987
-0.462677
-0.538776
-0.547758
-0.500064
-0.410742
-0.297646
-0.181786
-0.0838109
-0.015709
0.0251496
0.0535061
0.0878384
0.142556
0.223395
0.325327
0.433031
0.524795
0.578961
0.580547
0.526831
0.430987
0.320241
0.225325
0.164835
0.133695
0.103516
0.0381886
-0.0803854
-0.233688
-0.371564
-0.436802
-0.391396
-0.235139
-0.014625
0.188491
0.295401
0.269221
0.128598
-0.0611246
-0.196361
-0.0861645
0.066808
0.193632
0.236006
0.174832
0.042786
-0.0898328
-0.151011
-0.10458
0.031493
0.196122
0.317719
0.347485
0.275686
0.12804
-0.0492689
-0.20705
-0.30837
-0.338848
-0.30978
-0.252832
-0.206266
-0.19716
-0.229487
-0.285778
-0.340349
-0.37414
-0.382244
-0.372388
-0.35833
-0.352816
-0.362822
-0.388101
-0.422691
-0.457931
-0.484966
-0.495521
-0.481469
-0.435064
-0.351415
-0.23282
-0.0921033
0.048811
0.166413
0.245758
0.286348
0.298303
0.290073
0.256837
0.180299
0.0434689
-0.147308
-0.349364
-0.492765
-0.507433
-0.35591
-0.0649795
0.265131
0.5029
0.551954
0.390055
0.0838028
-0.223683
-0.38117
-0.31154
-0.045488
0.294731
0.557537
0.638892
0.512815
0.222853
-0.132449
-0.435278
-0.601098
-0.602673
-0.459591
-0.222602
0.0411507
0.268603
0.417707
0.47102
0.431111
0.315307
0.150464
-0.0327054
-0.204202
-0.338217
-0.417114
-0.435466
-0.401301
-0.333135
-0.254558
-0.189099
-0.156039
-0.165777
-0.21485
-0.284928
-0.349603
-0.385217
-0.377567
-0.322081
-0.222005
-0.0883987
0.0597547
0.199161
0.30971
0.381706
0.418766
0.434899
0.446228
0.460397
0.469356
0.450111
0.375038
0.231143
0.0392948
-0.145745
-0.262152
-0.274408
-0.189045
-0.0505983
0.0751104
0.128945
0.0883896
-0.0218541
-0.14465
-0.216652
-0.118635
0.122777
0.308774
0.364719
0.273794
0.0844382
-0.109538
-0.215079
-0.186331
-0.0455259
0.130882
0.254479
0.269454
0.172441
0.0025867
-0.184774
-0.342423
-0.44291
-0.479077
-0.460266
-0.408515
-0.353911
-0.325866
-0.341312
-0.396982
-0.472354
-0.54172
-0.586812
-0.602454
-0.594524
-0.57428
-0.552931
-0.538214
-0.533336
-0.537893
-0.549674
-0.565886
-0.582908
-0.594953
-0.593205
-0.567113
-0.508247
-0.415043
-0.295167
-0.162888
-0.0323507
0.0883122
0.196576
0.288177
0.348877
0.353939
0.279604
0.122473
-0.0854175
-0.279517
-0.385735
-0.352367
-0.180323
0.0634921
0.272178
0.354185
0.276984
0.0844953
-0.115229
-0.204487
-0.123945
0.0937813
0.340271
0.490789
0.468032
0.267544
-0.0457856
-0.359085
-0.560645
-0.589048
-0.445077
-0.178883
0.1274
0.386334
0.535449
0.551186
0.445239
0.255799
0.0363005
-0.160413
-0.296608
-0.355774
-0.340704
-0.267613
-0.159406
-0.0403984
0.0661938
0.138709
0.157721
0.109568
-0.00641029
-0.171139
-0.348156
-0.498062
-0.594839
-0.631157
-0.612399
-0.549116
-0.454336
-0.343743
-0.233526
-0.134438
-0.0459148
0.0442159
0.151403
0.279839
0.411291
0.507928
0.528946
0.451613
0.28977
0.100154
-0.038918
-0.072011
-0.000525279
0.119254
0.206425
0.194125
0.0651307
-0.132616
-0.310155
-0.384412
-0.313988
0.0134693
0.318744
0.473814
0.422613
0.201038
-0.0789142
-0.281765
-0.318337
-0.187524
0.0270417
0.203519
0.249714
0.147764
-0.0483606
-0.253332
-0.39911
-0.459854
-0.446621
-0.387842
-0.312431
-0.243129
-0.197072
-0.186018
-0.213195
-0.270382
-0.340045
-0.402626
-0.444227
-0.460005
-0.452796
-0.42957
-0.398182
-0.365399
-0.336282
-0.314617
-0.303752
-0.306894
-0.32617
-0.360583
-0.404006
-0.444885
-0.468839
-0.46367
-0.424216
-0.35376
-0.260591
-0.152238
-0.0325204
0.0951081
0.220077
0.319944
0.364577
0.329851
0.214266
0.0473973
-0.117286
-0.222798
-0.234345
-0.159442
-0.0460065
0.0459689
0.0783707
0.0536426
0.0119618
0.00553396
0.0616616
0.160199
0.242549
0.246435
0.141078
-0.0556931
-0.279135
-0.441703
-0.474364
-0.356317
-0.118219
0.169878
0.421161
0.563464
0.56235
0.425109
0.194299
-0.0636025
-0.27799
-0.397135
-0.40174
-0.305058
-0.143388
0.0392889
0.206595
0.337162
0.421946
0.456575
0.435606
0.353242
0.210909
0.0259091
-0.168854
-0.337985
-0.459553
-0.530535
-0.560587
-0.563201
-0.550855
-0.533365
-0.51579
-0.494893
-0.456849
-0.380225
-0.247366
-0.0623668
0.136901
0.289097
0.340743
0.277887
0.141074
0.0142799
-0.0171018
0.0790566
0.255134
0.409342
0.440561
0.296838
0.00977826
-0.305315
-0.5095
-0.513585
-0.311619
0.174373
0.459429
0.5239
0.350413
0.0304258
-0.276348
-0.423975
-0.35472
-0.122718
0.134734
0.273191
0.222285
0.0177942
-0.228402
-0.400001
-0.438798
-0.358028
-0.215013
-0.0711816
0.0358977
0.096685
0.118299
0.112305
0.0886612
0.055179
0.0190019
-0.0128336
-0.0343415
-0.0418667
-0.0346212
-0.0143582
0.0154237
0.0503505
0.0857789
0.116893
0.138387
0.144279
0.128589
0.0873024
0.0211811
-0.0620415
-0.148181
-0.220978
-0.268698
-0.288646
-0.285691
-0.26508
-0.224964
-0.15564
-0.0479668
0.0939871
0.245004
0.362403
0.402285
0.340437
0.185612
-0.0197955
-0.211484
-0.329001
-0.343662
-0.264803
-0.125925
0.0283513
0.154034
0.222472
0.224375
0.163027
0.0515455
-0.0884686
-0.231415
-0.346631
-0.397133
-0.352755
-0.209141
0.00633783
0.241931
0.434702
0.529169
0.496103
0.341217
0.103106
-0.155496
-0.364347
-0.46794
-0.442563
-0.301352
-0.0883015
0.137907
0.326432
0.451199
0.51266
0.526946
0.511779
0.476805
0.421948
0.3435
0.243141
0.132181
0.0267022
-0.061853
-0.132064
-0.190962
-0.249147
-0.31622
-0.396735
-0.486159
-0.568482
-0.617994
-0.606342
-0.515273
-0.353733
-0.16828
-0.0287455
0.0108549
-0.0505719
-0.152026
-0.196966
-0.107727
0.117754
0.389386
0.573199
0.56407
0.333599
-0.0425684
-0.401121
-0.579828
-0.502856
-0.205888
0.326656
0.517409
0.45559
0.174278
-0.186333
-0.447085
-0.485605
-0.294325
0.0172803
0.276267
0.343988
0.192715
-0.0839121
-0.328925
-0.418127
-0.322863
-0.105419
0.131479
0.305966
0.389666
0.399904
0.374052
0.346646
0.336301
0.344029
0.360498
0.375838
0.385745
0.391837
0.398431
0.409115
0.425046
0.44511
0.466985
0.487937
0.504721
0.512815
0.505972
0.477223
0.421815
0.341009
0.244016
0.145142
0.0562406
-0.0206614
-0.0936995
-0.171753
-0.250585
-0.305608
-0.299772
-0.204192
-0.0201761
0.208952
0.406163
0.491139
0.415973
0.188503
-0.119683
-0.393854
-0.530539
-0.482524
-0.268124
0.0314144
0.294186
0.415302
0.352993
0.136082
-0.148353
-0.393966
-0.525802
-0.515076
-0.36905
-0.129123
0.137291
0.362195
0.496225
0.512851
0.410561
0.214413
-0.0293887
-0.263956
-0.433586
-0.496922
-0.438603
-0.274637
-0.0494359
0.176672
0.348328
0.435206
0.439521
0.388647
0.319817
0.265276
0.242992
0.254357
0.28786
0.326509
0.355709
0.367669
0.360634
0.334974
0.289477
0.219848
0.120353
-0.0110921
-0.166145
-0.32235
-0.446968
-0.50807
-0.489147
-0.403173
-0.297161
-0.234048
-0.254024
-0.341884
-0.426552
-0.41533
-0.247693
0.0535986
0.373575
0.565952
0.534238
0.276064
-0.101769
-0.419015
-0.522374
-0.365859
-0.0265014
0.428545
0.479246
0.290785
-0.0521731
-0.381687
-0.534799
-0.437923
-0.140113
0.204812
0.416294
0.389258
0.149191
-0.16098
-0.362735
-0.348888
-0.134542
0.167819
0.423869
0.553816
0.555315
0.478068
0.387348
0.334186
0.338404
0.388837
0.457568
0.518084
0.556844
0.574102
0.577589
0.575473
0.5726
0.570483
0.56929
0.56957
0.572298
0.577188
0.580669
0.575533
0.553625
0.510869
0.451317
0.385806
0.323705
0.262569
0.184996
0.0690587
-0.0910325
-0.26753
-0.401001
-0.425517
-0.30328
-0.0521622
0.245964
0.471084
0.519288
0.351319
0.0191384
-0.340665
-0.569819
-0.567769
-0.328386
0.0508669
0.395926
0.546528
0.436243
0.111956
-0.282628
-0.577068
-0.664788
-0.527981
-0.220969
0.144697
0.443106
0.590932
0.564597
0.387804
0.119749
-0.162321
-0.388364
-0.511652
-0.512217
-0.397079
-0.199106
0.0296051
0.230588
0.355385
0.380197
0.312029
0.183227
0.0379631
-0.0821334
-0.147407
-0.143473
-0.071164
0.0543785
0.206699
0.355504
0.476615
0.55819
0.599386
0.603768
0.572884
0.504361
0.395973
0.253452
0.0961724
-0.0454951
-0.142056
-0.180439
-0.175277
-0.16738
-0.20307
-0.301397
-0.432493
-0.526081
-0.505869
-0.333195
-0.0449947
0.244728
0.403974
0.358316
0.129333
-0.166215
-0.367755
-0.362046
-0.145277
0.174379
0.443568
0.346238
0.0690548
-0.265491
-0.495743
-0.506227
-0.284018
0.0702796
0.382844
0.499096
0.367112
0.0646722
-0.23535
-0.362789
-0.250197
0.0373092
0.349406
0.546125
0.571617
0.457289
0.282743
0.132019
0.0595899
0.0760658
0.155382
0.255063
0.338352
0.387653
0.404439
0.400025
0.385715
0.367882
0.348494
0.328476
0.310599
0.299751
0.300351
0.312664
0.330904
0.345519
0.349432
0.344325
0.340884
0.3497
0.367031
0.366617
0.307909
0.160937
-0.0648221
-0.308018
-0.475113
-0.484344
-0.308413
0.000203876
0.316195
0.495153
0.445893
0.178446
-0.187005
-0.471528
-0.53234
-0.33
0.0475879
0.411885
0.576394
0.456942
0.103913
-0.314671
-0.59944
-0.630872
-0.404298
-0.0148507
0.375645
0.616296
0.635515
0.445505
0.121581
-0.223126
-0.481933
-0.592609
-0.543139
-0.361945
-0.107973
0.145217
0.331088
0.407227
0.363588
0.222242
0.0274872
-0.171266
-0.335034
-0.441587
-0.48251
-0.456957
-0.36854
-0.227286
-0.0525548
0.129233
0.293107
0.424067
0.518906
0.581037
0.613499
0.615426
0.584094
0.520842
0.436139
0.348641
0.27669
0.226542
0.185099
0.124328
0.0192465
-0.129465
-0.285762
-0.391928
-0.397324
-0.287188
-0.101501
0.0731305
0.148932
0.0898678
-0.0650144
-0.216622
-0.25804
-0.139566
0.0972063
0.335559
0.353578
0.138817
-0.159022
-0.409062
-0.49184
-0.358591
-0.0577001
0.277324
0.488367
0.475811
0.248893
-0.0729481
-0.314849
-0.346135
-0.155217
0.147708
0.399081
0.481793
0.379284
0.15893
-0.0781745
-0.247929
-0.312858
-0.28257
-0.196388
-0.101324
-0.0324107
-0.00226828
-0.0039437
-0.0224009
-0.0454509
-0.0682343
-0.0912686
-0.115562
-0.138645
-0.153965
-0.153981
-0.135161
-0.101512
-0.063196
-0.0293156
0.00118246
0.0426761
0.114114
0.220474
0.336209
0.406012
0.36942
0.198631
-0.071893
-0.346147
-0.506721
-0.472661
-0.242924
0.0897587
0.37179
0.466773
0.328461
0.0288031
-0.271981
-0.410537
-0.308334
-0.0157178
0.305704
0.475158
0.397001
0.106735
-0.242713
-0.464219
-0.44475
-0.19145
0.179072
0.49393
0.61541
0.499584
0.194971
-0.181223
-0.490028
-0.632557
-0.578824
-0.359895
-0.0525419
0.244093
0.443277
0.496961
0.402977
0.200484
-0.0451224
-0.268506
-0.428819
-0.517327
-0.547856
-0.540557
-0.509442
-0.458681
-0.386751
-0.293559
-0.184724
-0.0700975
0.0411892
0.144175
0.237445
0.320139
0.389908
0.443546
0.479346
0.498768
0.505442
0.50156
0.483905
0.442947
0.367795
0.256216
0.123055
-0.00178478
-0.0872588
-0.117865
-0.103086
-0.0749042
-0.0714654
-0.112913
-0.185005
-0.241108
-0.224504
-0.104683
0.0945448
0.296845
0.405999
0.169563
-0.102697
-0.342694
-0.447028
-0.364538
-0.120862
0.18549
0.420587
0.477514
0.328563
0.0422798
-0.240694
-0.376634
-0.299388
-0.0587821
0.205484
0.346226
0.294205
0.08353
-0.185658
-0.410203
-0.532357
-0.549783
-0.496925
-0.420814
-0.361782
-0.340682
-0.355732
-0.390319
-0.426081
-0.452557
-0.469155
-0.481103
-0.493416
-0.506314
-0.514198
-0.508728
-0.484663
-0.445104
-0.401655
-0.36681
-0.341599
-0.307594
-0.232478
-0.0907189
0.109964
0.314663
0.437561
0.40566
0.20428
-0.100881
-0.382382
-0.510868
-0.420881
-0.146604
0.185028
0.414193
0.435715
0.253752
-0.0230053
-0.240127
-0.283519
-0.143546
0.0807165
0.245793
0.254145
0.108657
-0.0905532
-0.20795
-0.158222
0.0453248
0.298186
0.461943
0.4416
0.228488
-0.100819
-0.416415
-0.595478
-0.575549
-0.367349
-0.0434622
0.285438
0.512382
0.573368
0.461299
0.222069
-0.0607279
-0.298257
-0.433942
-0.46099
-0.412957
-0.339337
-0.281897
-0.262123
-0.280524
-0.322552
-0.366991
-0.394635
-0.394401
-0.36443
-0.309054
-0.234864
-0.148027
-0.0529516
0.0478976
0.152515
0.256222
0.349044
0.41676
0.446357
0.433109
0.385424
0.324095
0.273569
0.247486
0.237863
0.216681
0.149925
0.0202464
-0.151819
-0.3094
-0.387094
-0.341027
-0.170469
0.0714524
0.294036
0.408372
0.363808
-0.0684499
-0.328078
-0.445597
-0.373545
-0.142173
0.151967
0.385449
0.4598
0.342414
0.0827276
-0.203731
-0.385133
-0.378221
-0.19375
0.0629737
0.245816
0.252076
0.0789783
-0.184978
-0.422001
-0.55346
-0.567891
-0.504156
-0.418364
-0.357669
-0.346671
-0.384382
-0.450436
-0.518134
-0.567564
-0.591892
-0.595723
-0.589189
-0.58156
-0.57656
-0.570771
-0.556261
-0.527061
-0.486411
-0.449144
-0.434383
-0.449922
-0.477892
-0.474075
-0.386781
-0.189947
0.0856113
0.348086
0.48434
0.421402
0.170283
-0.166292
-0.434236
-0.506482
-0.347215
-0.0301152
0.292642
0.469901
0.432295
0.218334
-0.053978
-0.250675
-0.294833
-0.202663
-0.0564374
0.0582186
0.102228
0.0965079
0.0969014
0.145366
0.232691
0.300531
0.280187
0.138484
-0.098075
-0.348315
-0.510488
-0.511173
-0.337115
-0.0392088
0.2837
0.521587
0.59728
0.490905
0.242197
-0.0607192
-0.312205
-0.433945
-0.405641
-0.265064
-0.0830162
0.0712344
0.154051
0.15124
0.0703718
-0.0662831
-0.226777
-0.377154
-0.491549
-0.558665
-0.580704
-0.566928
-0.526477
-0.463635
-0.377379
-0.266035
-0.135363
-0.00412261
0.100083
0.155452
0.162029
0.14719
0.154202
0.216067
0.327601
0.437476
0.471161
0.369793
0.129218
-0.175306
-0.415487
-0.482926
-0.34439
-0.0580523
0.246238
0.431376
0.420434
0.223917
-0.306143
-0.49533
-0.457026
-0.214028
0.120654
0.396885
0.498834
0.388271
0.115495
-0.199069
-0.418211
-0.449842
-0.286937
-0.0160452
0.218711
0.291513
0.164806
-0.090986
-0.342811
-0.478506
-0.464352
-0.342679
-0.190639
-0.0761802
-0.0344936
-0.0664313
-0.14816
-0.245039
-0.326276
-0.374918
-0.389351
-0.378474
-0.355292
-0.331485
-0.313206
-0.298793
-0.280315
-0.250246
-0.210895
-0.18
-0.185397
-0.247723
-0.359227
-0.472982
-0.515087
-0.420143
-0.175479
0.150356
0.425741
0.523583
0.389817
0.0751519
-0.277067
-0.498198
-0.483541
-0.240424
0.11566
0.414971
0.52373
0.40561
0.124665
-0.188673
-0.40211
-0.448075
-0.338749
-0.134865
0.087723
0.264513
0.362958
0.379009
0.317012
0.183937
-0.00177162
-0.206055
-0.381099
-0.471931
-0.435296
-0.263496
0.00472171
0.291987
0.506627
0.576298
0.474496
0.230671
-0.0747409
-0.334914
-0.458967
-0.40924
-0.213724
0.049963
0.293402
0.45653
0.52009
0.491821
0.38887
0.231263
0.0434733
-0.146067
-0.311742
-0.438831
-0.525961
-0.580397
-0.609749
-0.6151
-0.589848
-0.526276
-0.427389
-0.315467
-0.226596
-0.189014
-0.198869
-0.212998
-0.167872
-0.0188378
0.218232
0.45524
0.572902
0.486353
0.198373
-0.174709
-0.449802
-0.488109
-0.271676
0.0866289
0.397099
0.501577
0.353267
0.0299223
-0.49625
-0.584441
-0.392233
-0.01457
0.363624
0.566751
0.512561
0.232382
-0.14351
-0.444057
-0.542489
-0.405983
-0.105321
0.209588
0.382135
0.33107
0.0919615
-0.199333
-0.38602
-0.383514
-0.214337
0.0249719
0.230043
0.340714
0.350424
0.287501
0.19339
0.105843
0.0479903
0.0257068
0.0326429
0.0573616
0.0879195
0.114097
0.12984
0.136349
0.142775
0.160779
0.193348
0.224744
0.220915
0.144604
-0.0190648
-0.23839
-0.431537
-0.498093
-0.374099
-0.080648
0.265381
0.503324
0.515961
0.28869
-0.0775616
-0.406373
-0.538851
-0.413893
-0.0909244
0.275415
0.511407
0.512439
0.281096
-0.0795397
-0.409829
-0.574723
-0.520249
-0.27428
0.0674004
0.371085
0.52747
0.493814
0.291465
-0.00561432
-0.294614
-0.488092
-0.539217
-0.439148
-0.215286
0.0708464
0.340402
0.519628
0.557119
0.437341
0.189872
-0.112185
-0.371284
-0.499397
-0.451466
-0.243888
0.049637
0.330991
0.526236
0.613893
0.615129
0.564388
0.486687
0.392151
0.283133
0.163403
0.0412747
-0.0742604
-0.178925
-0.273951
-0.360823
-0.434189
-0.479922
-0.482926
-0.44197
-0.380641
-0.341063
-0.357223
-0.424029
-0.487299
-0.466275
-0.299667
0.00200733
0.331851
0.532932
0.491175
0.207532
-0.177205
-0.446067
-0.443133
-0.166788
0.225768
0.506247
0.515517
0.244545
-0.165044
-0.610693
-0.596467
-0.280984
0.176684
0.542088
0.642136
0.440377
0.0363843
-0.374123
-0.600979
-0.553561
-0.264137
0.126203
0.427898
0.502473
0.327703
0.00757505
-0.275446
-0.366283
-0.225331
0.0636161
0.358013
0.548073
0.604149
0.559878
0.473087
0.395499
0.355997
0.357425
0.385617
0.423189
0.458213
0.484241
0.496604
0.491695
0.47111
0.446192
0.435782
0.454155
0.495328
0.525692
0.493172
0.352582
0.100401
-0.198923
-0.425965
-0.466894
-0.282782
0.054191
0.383452
0.540341
0.44318
0.131533
-0.245966
-0.504247
-0.521242
-0.291319
0.0752123
0.40033
0.529151
0.402023
0.0751957
-0.300158
-0.551102
-0.568087
-0.340907
0.0365053
0.393316
0.568725
0.490801
0.194283
-0.19315
-0.50726
-0.632933
-0.539959
-0.270613
0.077697
0.387563
0.569196
0.581307
0.427777
0.154301
-0.158705
-0.417651
-0.544202
-0.498382
-0.293565
0.00090261
0.282951
0.465928
0.519566
0.473922
0.390206
0.324001
0.302472
0.321203
0.355368
0.377291
0.370635
0.333122
0.269378
0.183762
0.0808424
-0.028009
-0.121126
-0.174714
-0.181129
-0.163448
-0.169793
-0.243293
-0.38446
-0.534601
-0.597685
-0.491312
-0.206263
0.154519
0.412222
0.422778
0.17409
-0.186575
-0.428306
-0.388144
-0.0763559
0.322283
0.561153
0.489684
0.133284
-0.316373
-0.636866
-0.541603
-0.153212
0.323166
0.632638
0.623783
0.307508
-0.157348
-0.536117
-0.651419
-0.461875
-0.0629403
0.350197
0.581057
0.533911
0.248377
-0.115602
-0.354378
-0.340085
-0.0893045
0.257174
0.53004
0.637272
0.592258
0.471348
0.35926
0.310924
0.336972
0.412035
0.497614
0.565013
0.604296
0.617626
0.607873
0.574137
0.517538
0.451003
0.401841
0.399942
0.456339
0.546162
0.608862
0.570284
0.38253
0.0684447
-0.262049
-0.45958
-0.423048
-0.161878
0.197777
0.473085
0.524256
0.322545
-0.0375886
-0.380179
-0.540557
-0.447288
-0.147829
0.211878
0.456415
0.470326
0.249671
-0.0960145
-0.39359
-0.495247
-0.347473
-0.0182518
0.322713
0.493798
0.401877
0.0837647
-0.30695
-0.579819
-0.614369
-0.401138
-0.0291081
0.35021
0.595136
0.634238
0.470754
0.165762
-0.17962
-0.457538
-0.589294
-0.541955
-0.333336
-0.0338667
0.249986
0.418941
0.426837
0.298984
0.113404
-0.0421221
-0.108138
-0.0672532
0.0602968
0.229168
0.388846
0.504652
0.56549
0.575207
0.540251
0.466535
0.366532
0.26592
0.196841
0.176285
0.185549
0.171815
0.0781844
-0.11285
-0.350245
-0.526399
-0.532615
-0.329721
0.00129808
0.279722
0.337211
0.137551
-0.184795
-0.401996
-0.3485
-0.0350074
0.348345
0.553475
0.438419
0.0498162
-0.394375
-0.56891
-0.429907
-0.0324939
0.400532
0.623976
0.518599
0.138231
-0.317908
-0.610522
-0.598683
-0.294333
0.151838
0.518026
0.633553
0.457845
0.0882943
-0.27683
-0.442019
-0.327306
-0.00750007
0.334083
0.524456
0.50439
0.333904
0.130267
-0.00306329
-0.0198313
0.0652616
0.199084
0.323346
0.403226
0.434989
0.431787
0.404124
0.351683
0.271292
0.172878
0.0881694
0.0613492
0.124741
0.272862
0.449199
0.55886
0.510945
0.275741
-0.073805
-0.380608
-0.491943
-0.348805
-0.0189585
0.331578
0.525899
0.469326
0.188542
-0.181862
-0.463821
-0.528045
-0.350894
-0.0196292
0.305107
0.468917
0.401811
0.148653
-0.153168
-0.343045
-0.322177
-0.108579
0.165398
0.327564
0.270288
0.0135222
-0.300902
-0.492113
-0.448279
-0.177066
0.20271
0.519283
0.640802
0.52802
0.228819
-0.145279
-0.461589
-0.620981
-0.584568
-0.371832
-0.0559557
0.251001
0.437521
0.438187
0.260489
-0.0178086
-0.287134
-0.460607
-0.501434
-0.415075
-0.234106
-0.0080123
0.211639
0.3899
0.515305
0.589843
0.615498
0.591896
0.526558
0.445762
0.38986
0.388376
0.431637
0.464874
0.415066
0.237468
-0.041495
-0.315129
-0.446743
-0.357221
-0.092484
0.1814
0.280711
0.136978
-0.146307
-0.358408
-0.330741
-0.0577319
0.290423
0.479469
0.37139
0.0132531
-0.381634
-0.409259
-0.274091
0.061129
0.39183
0.510634
0.336831
-0.0436143
-0.421802
-0.588593
-0.454003
-0.0817986
0.340803
0.600812
0.576791
0.28641
-0.123574
-0.441524
-0.508639
-0.303813
0.0466896
0.336932
0.411308
0.253421
-0.0287272
-0.285867
-0.415709
-0.397765
-0.275422
-0.121548
-0.00180627
0.054521
0.0580691
0.036662
0.00779887
-0.032603
-0.0996221
-0.196516
-0.297948
-0.353609
-0.310829
-0.144918
0.112433
0.364499
0.485142
0.389777
0.0979493
-0.255702
-0.489923
-0.482954
-0.233874
0.137499
0.447703
0.547872
0.393754
0.0577129
-0.302368
-0.518832
-0.497093
-0.252187
0.0997386
0.391778
0.492089
0.369485
0.101732
-0.164659
-0.291747
-0.230551
-0.049381
0.113274
0.140983
0.0158723
-0.168023
-0.268245
-0.190313
0.0526894
0.344245
0.531509
0.513575
0.284926
-0.0695055
-0.411206
-0.613222
-0.611581
-0.413569
-0.0883347
0.249833
0.480152
0.520913
0.357098
0.0489247
-0.288675
-0.544588
-0.664604
-0.653745
-0.546706
-0.385144
-0.207984
-0.0431578
0.098756
0.219811
0.320631
0.390483
0.412377
0.381472
0.321991
0.283974
0.313961
0.417003
0.539798
0.592277
0.497476
0.24543
-0.0752595
-0.308452
-0.329359
-0.138057
0.125662
0.270299
0.190447
-0.0555143
-0.285473
-0.325861
-0.137532
0.153889
0.344187
0.295314
0.0308524
-0.273836
-0.181129
-0.0989817
0.108392
0.290485
0.301763
0.103405
-0.206403
-0.446752
-0.466987
-0.235668
0.141337
0.471835
0.585269
0.42166
0.0548073
-0.336409
-0.558464
-0.509354
-0.227179
0.122886
0.334671
0.288995
0.0196442
-0.322486
-0.575959
-0.662755
-0.599669
-0.458463
-0.323977
-0.256193
-0.264256
-0.311859
-0.351405
-0.359233
-0.348537
-0.355794
-0.410186
-0.505733
-0.595673
-0.611134
-0.492923
-0.230324
0.104967
0.370682
0.431307
0.245317
-0.0982853
-0.419081
-0.548231
-0.416995
-0.0823377
0.297693
0.542107
0.540152
0.293636
-0.0868738
-0.424831
-0.564728
-0.445841
-0.122953
0.252516
0.502682
0.519469
0.311748
-0.00612176
-0.269914
-0.360183
-0.270224
-0.0927459
0.0508155
0.0906569
0.0503749
0.0176461
0.0677687
0.201489
0.33952
0.375896
0.248749
-0.0199087
-0.329911
-0.552317
-0.594738
-0.43612
-0.127409
0.224607
0.495594
0.592609
0.483258
0.205268
-0.13888
-0.424492
-0.57197
-0.57867
-0.495554
-0.386
-0.298208
-0.25221
-0.236278
-0.217918
-0.168669
-0.0860795
0.00188885
0.05333
0.0431334
-0.0109736
-0.0495962
-0.00546269
0.149078
0.370202
0.552306
0.582715
0.410705
0.0967296
-0.196903
-0.303734
-0.172917
0.0896581
0.290592
0.286365
0.0819513
-0.178542
-0.317015
-0.248245
-0.0343122
0.166487
0.216312
0.0950342
-0.0887416
0.0665622
0.0583176
0.0968499
0.111913
0.0353488
-0.133406
-0.310527
-0.376255
-0.256384
0.022112
0.333513
0.517493
0.468988
0.193534
-0.188933
-0.496803
-0.583778
-0.412188
-0.0727175
0.248348
0.369306
0.222519
-0.108415
-0.445276
-0.636643
-0.641249
-0.515395
-0.358602
-0.263544
-0.275813
-0.374217
-0.488181
-0.545543
-0.516237
-0.426424
-0.341456
-0.325717
-0.401461
-0.53267
-0.638583
-0.626834
-0.439562
-0.104986
0.244716
0.438538
0.374845
0.0835255
-0.28409
-0.535782
-0.543437
-0.296754
0.0955882
0.450129
0.602208
0.482861
0.140934
-0.268483
-0.550418
-0.572589
-0.323164
0.0821898
0.443297
0.584856
0.448139
0.109217
-0.254868
-0.464337
-0.44325
-0.240799
0.0170891
0.206181
0.276861
0.263634
0.230679
0.210932
0.183722
0.100582
-0.0646262
-0.280294
-0.462898
-0.521736
-0.408703
-0.143112
0.191184
0.47722
0.615267
0.559342
0.329111
0.00966034
-0.273879
-0.417568
-0.39422
-0.257111
-0.0979763
0.000753877
-0.00721711
-0.119655
-0.28298
-0.417115
-0.46346
-0.417022
-0.324187
-0.254739
-0.258665
-0.329243
-0.400487
-0.384076
-0.223283
0.0607475
0.356962
0.516177
0.4432
0.1671
-0.152787
-0.318375
-0.230836
0.0413887
0.308654
0.391871
0.240631
-0.0454858
-0.288959
-0.354697
-0.232086
-0.0227983
0.140138
0.182761
0.129833
0.277768
0.164662
0.0312051
-0.102458
-0.226084
-0.31526
-0.32434
-0.214109
0.00734524
0.267107
0.451006
0.459647
0.264186
-0.0681212
-0.394366
-0.564523
-0.496935
-0.217016
0.143817
0.403208
0.42758
0.207588
-0.13257
-0.407323
-0.491711
-0.385839
-0.185071
-0.0125343
0.0396082
-0.0548249
-0.245309
-0.427752
-0.503021
-0.43274
-0.257545
-0.0742759
0.0179452
-0.0305367
-0.200182
-0.408367
-0.535753
-0.478969
-0.217011
0.147999
0.432447
0.485423
0.274797
-0.0980641
-0.445877
-0.596142
-0.474231
-0.12782
0.286505
0.572692
0.596527
0.341121
-0.0813997
-0.465336
-0.620044
-0.468916
-0.0823399
0.341017
0.578079
0.511251
0.180049
-0.236384
-0.516811
-0.533728
-0.305229
0.035563
0.318374
0.436951
0.390887
0.247909
0.0833368
-0.0627046
-0.189809
-0.3063
-0.396273
-0.41635
-0.323403
-0.109915
0.176639
0.44463
0.597987
0.578004
0.385083
0.0851156
-0.203942
-0.3603
-0.321011
-0.116108
0.150299
0.360985
0.436279
0.344312
0.105041
-0.198292
-0.446827
-0.556249
-0.521652
-0.409369
-0.31767
-0.321986
-0.428061
-0.564687
-0.622643
-0.514306
-0.229574
0.129914
0.386929
0.400856
0.167008
-0.163919
-0.372699
-0.32038
-0.0377175
0.296008
0.472241
0.388212
0.0962844
-0.235438
-0.427899
-0.399232
-0.192264
0.0708889
0.264541
0.328041
0.418449
0.209203
-0.0656059
-0.301604
-0.424617
-0.403458
-0.244358
0.0065691
0.267481
0.444631
0.46384
0.301161
0.00452327
-0.313141
-0.519145
-0.520954
-0.307024
0.0402316
0.369263
0.530715
0.453791
0.184795
-0.12446
-0.299171
-0.253182
-0.0322432
0.232737
0.409822
0.422999
0.266241
0.0067303
-0.229885
-0.32098
-0.218758
0.0231373
0.281621
0.435472
0.41974
0.234819
-0.0531712
-0.315072
-0.407506
-0.258783
0.0701503
0.404284
0.560052
0.449272
0.114079
-0.289756
-0.567585
-0.588008
-0.335813
0.0798638
0.461278
0.623048
0.484417
0.104284
-0.328591
-0.588251
-0.541134
-0.210504
0.224624
0.519095
0.512402
0.213036
-0.206531
-0.506534
-0.531441
-0.284663
0.0903835
0.394268
0.493023
0.377322
0.13379
-0.119574
-0.29851
-0.380314
-0.381828
-0.322066
-0.204426
-0.0267643
0.194473
0.409836
0.548673
0.550175
0.392765
0.112941
-0.192943
-0.400179
-0.412163
-0.209369
0.131217
0.471412
0.691865
0.735616
0.591336
0.289209
-0.0738348
-0.357388
-0.462728
-0.389871
-0.226772
-0.0980883
-0.0997477
-0.248488
-0.469913
-0.633355
-0.619073
-0.385801
-0.0188483
0.289675
0.361275
0.157369
-0.185396
-0.43608
-0.424145
-0.144102
0.242719
0.507448
0.500642
0.228155
-0.160657
-0.455859
-0.513628
-0.322658
0.0104227
0.319177
0.469119
0.488318
0.205576
-0.164303
-0.44979
-0.535043
-0.397638
-0.100024
0.233353
0.469218
0.521186
0.371292
0.0737752
-0.257269
-0.492184
-0.53862
-0.372983
-0.05205
0.29925
0.538663
0.571564
0.390972
0.0901349
-0.16596
-0.229115
-0.0599955
0.251268
0.550342
0.715115
0.696236
0.504002
0.209124
-0.0566883
-0.158466
-0.0417376
0.233066
0.530237
0.722532
0.741978
0.572388
0.251059
-0.104376
-0.325463
-0.294453
-0.0264726
0.328834
0.573833
0.575441
0.318584
-0.0897729
-0.460312
-0.619398
-0.492583
-0.13251
0.290083
0.563976
0.552891
0.26011
-0.163117
-0.485387
-0.532484
-0.283384
0.114893
0.422539
0.458985
0.209983
-0.166959
-0.437771
-0.444735
-0.192917
0.164516
0.421501
0.448079
0.251187
-0.0527782
-0.314585
-0.436251
-0.40527
-0.269567
-0.0913015
0.0872229
0.248547
0.38173
0.464169
0.461392
0.344582
0.115725
-0.172601
-0.422908
-0.531068
-0.432383
-0.136842
0.256272
0.60233
0.79712
0.807313
0.638549
0.330465
-0.0137637
-0.250833
-0.285335
-0.130589
0.104001
0.277173
0.28651
0.108094
-0.189271
-0.460027
-0.55109
-0.391072
-0.0503223
0.272828
0.374406
0.186093
-0.174609
-0.473484
-0.515096
-0.259579
0.156868
0.49628
0.569369
0.337829
-0.0747776
-0.443134
-0.574481
-0.410855
-0.0411294
0.341502
0.546503
0.508955
0.178834
-0.242663
-0.537128
-0.567167
-0.328585
0.0617888
0.417567
0.582069
0.496452
0.204152
-0.16858
-0.465214
-0.571457
-0.452015
-0.153046
0.210429
0.497855
0.604096
0.495476
0.220567
-0.0938593
-0.288819
-0.256207
-0.00128273
0.35652
0.658032
0.799419
0.754267
0.544552
0.241024
-0.0292774
-0.13492
-0.021477
0.253928
0.560763
0.775901
0.830038
0.694428
0.38201
-0.00997362
-0.309155
-0.369716
-0.165901
0.19035