# vtk DataFile Version 3.0
PFC simulation results
ASCII
DATASET STRUCTURED_POINTS
DIMENSIONS 128 128 1
ORIGIN 0 0 0
SPACING 1 1 1
POINT_DATA 16384
SCALARS psi double
LOOKUP_TABLE default
1.36822e-09
-1.21682e-09
1.07075e-09
-9.26477e-10
7.89546e-10
-6.44758e-10
4.80781e-10
-3.37002e-10
1.46058e-10
1.20735e-10
-2.76604e-10
7.03129e-10
-1.25112e-09
1.48856e-09
-3.07497e-09
4.44787e-09
-3.90875e-09
4.81133e-08
2.92388e-07
1.93996e-06
4.15137e-06
6.51382e-07
-6.30867e-06
-9.92751e-06
-6.36412e-06
-2.0157e-06
-4.80228e-06
-1.20731e-06
1.03105e-05
1.42535e-05
1.25122e-05
1.04265e-05
9.52017e-06
1.04265e-05
1.25121e-05
1.42537e-05
1.03102e-05
-1.20697e-06
-4.80272e-06
-2.01519e-06
-6.36481e-06
-9.92665e-06
-6.30957e-06
6.52884e-07
4.14972e-06
1.94187e-06
2.88434e-07
5.19556e-08
-8.34756e-09
5.75004e-08
3.41062e-07
2.27328e-06
5.29636e-06
2.53937e-06
-4.91038e-06
-1.00539e-05
-7.43043e-06
-1.9237e-07
-8.62722e-07
-8.96864e-07
8.23204e-06
1.31889e-05
1.13863e-05
7.59645e-06
5.70365e-06
7.59609e-06
1.13871e-05
1.31878e-05
8.23356e-06
-8.98815e-07
-8.60268e-07
-1.95405e-07
-7.4268e-06
-1.00584e-05
-4.90496e-06
2.5329e-06
5.3045e-06
2.26324e-06
3.53783e-07
4.06098e-08
1.37326e-08
1.11375e-08
2.77879e-07
1.61437e-06
5.09902e-06
4.70842e-06
-1.8052e-06
-3.52216e-06
-1.83087e-06
1.36202e-07
-6.53942e-06
-5.37651e-06
3.81937e-06
7.80538e-06
9.73563e-06
1.20135e-05
1.3289e-05
1.21881e-05
8.93114e-06
4.69326e-06
-6.03374e-07
-7.74606e-06
-6.82176e-06
7.10818e-07
-1.69034e-06
-4.91572e-06
-2.23888e-06
4.59763e-06
4.75828e-06
1.47869e-06
2.54698e-07
8.15725e-09
1.50171e-08
-1.06716e-08
8.02322e-09
-7.31602e-09
5.84627e-09
-5.02546e-09
4.44864e-09
-3.78492e-09
3.3674e-09
-2.98893e-09
2.64088e-09
-2.36981e-09
2.12343e-09
-1.90198e-09
1.70954e-09
-1.53239e-09
-1.48246e-09
1.31856e-09
-1.16159e-09
1.01543e-09
-8.65002e-10
6.98215e-10
-5.57459e-10
3.86214e-10
-1.23227e-10
1.29955e-12
3.04387e-10
-9.01788e-10
8.37486e-10
-2.03227e-09
3.27626e-09
-3.52095e-09
6.34953e-09
-4.83615e-08
-3.07786e-07
-2.05007e-06
-4.38866e-06
-6.84847e-07
6.71671e-06
1.05931e-05
6.79134e-06
2.15759e-06
5.17144e-06
1.27107e-06
-1.11888e-05
-1.54456e-05
-1.35518e-05
-1.12896e-05
-1.0307e-05
-1.12896e-05
-1.35517e-05
-1.54458e-05
-1.11886e-05
1.27076e-06
5.17185e-06
2.15707e-06
6.79194e-06
1.05922e-05
6.71768e-06
-6.85989e-07
-4.38688e-06
-2.05202e-06
-3.04875e-07
-5.33398e-08
9.44139e-09
-5.36943e-08
-3.21581e-07
-2.15681e-06
-5.0278e-06
-2.41671e-06
4.61451e-06
9.43953e-06
6.97358e-06
1.82627e-07
7.85843e-07
8.32638e-07
-7.63408e-06
-1.22383e-05
-1.05757e-05
-7.06792e-06
-5.31615e-06
-7.06754e-06
-1.05764e-05
-1.22371e-05
-7.6357e-06
8.3473e-07
7.8319e-07
1.85819e-07
6.96966e-06
9.44437e-06
4.60887e-06
-2.40962e-06
-5.03653e-06
-2.14631e-06
-3.35498e-07
-3.58446e-08
-1.41722e-08
-1.00018e-08
-2.95077e-07
-1.7099e-06
-5.40422e-06
-4.9861e-06
1.91403e-06
3.72089e-06
1.95279e-06
-1.22367e-07
7.06418e-06
5.74523e-06
-4.2394e-06
-8.51077e-06
-1.05423e-05
-1.29887e-05
-1.43778e-05
-1.31955e-05
-9.65342e-06
-5.0251e-06
7.22722e-07
8.39206e-06
7.35595e-06
-7.97265e-07
1.76148e-06
5.2521e-06
2.38691e-06
-4.86643e-06
-5.0231e-06
-1.5546e-06
-2.63893e-07
-4.33732e-09
-1.3598e-08
1.20992e-08
-8.8717e-09
7.19083e-09
-6.6879e-09
5.23031e-09
-4.70141e-09
4.15106e-09
-3.55589e-09
3.20593e-09
-2.85366e-09
2.53456e-09
-2.2852e-09
2.0526e-09
-1.84127e-09
1.65498e-09
1.60505e-09
-1.42916e-09
1.26805e-09
-1.10661e-09
9.32215e-10
-7.89391e-10
6.26295e-10
-3.64627e-10
2.52972e-10
-4.79814e-11
-5.98724e-10
4.20815e-10
-1.11145e-09
2.88265e-09
-1.36959e-09
6.26812e-09
-5.86668e-09
4.77411e-08
3.17109e-07
2.15834e-06
4.63643e-06
7.0855e-07
-7.18109e-06
-1.13364e-05
-7.24597e-06
-2.26854e-06
-5.52151e-06
-1.23323e-06
1.23593e-05
1.70189e-05
1.49811e-05
1.25367e-05
1.14738e-05
1.25368e-05
1.4981e-05
1.70191e-05
1.2359e-05
-1.23293e-06
-5.52188e-06
-2.26806e-06
-7.24656e-06
-1.13357e-05
-7.18204e-06
7.09682e-07
4.63496e-06
2.16048e-06
3.14512e-07
5.21967e-08
-9.61165e-09
5.29254e-08
3.07362e-07
2.05579e-06
4.78992e-06
2.30919e-06
-4.35076e-06
-8.89767e-06
-6.5752e-06
-1.82749e-07
-7.30876e-07
-7.88302e-07
7.10205e-06
1.13983e-05
9.85588e-06
6.59225e-06
4.96268e-06
6.59184e-06
9.85672e-06
1.1397e-05
7.10379e-06
-7.90587e-07
-7.28089e-07
-1.86193e-07
-6.57085e-06
-8.90262e-06
-4.34458e-06
2.30133e-06
4.79867e-06
2.04395e-06
3.22245e-07
3.42913e-08
1.63242e-08
6.26393e-09
3.0571e-07
1.80314e-06
5.73224e-06
5.28919e-06
-2.03422e-06
-3.92946e-06
-2.06398e-06
1.42383e-07
-7.6254e-06
-6.11129e-06
4.80143e-06
9.41303e-06
1.15718e-05
1.42276e-05
1.57638e-05
1.45005e-05
1.06345e-05
5.54994e-06
-7.36218e-07
-9.042e-06
-7.91284e-06
9.20049e-07
-1.85134e-06
-5.67017e-06
-2.59978e-06
5.1273e-06
5.29125e-06
1.62568e-06
2.72072e-07
4.24532e-09
1.76824e-08
-9.59037e-09
1.1491e-08
-7.21532e-09
6.78964e-09
-6.12062e-09
4.78021e-09
-4.46405e-09
3.91344e-09
-3.38271e-09
3.07994e-09
-2.74759e-09
2.45083e-09
-2.21636e-09
1.99281e-09
-1.78915e-09
-1.73747e-09
1.55914e-09
-1.37954e-09
1.1915e-09
-1.04341e-09
8.76997e-10
-6.12397e-10
5.04151e-10
-3.65348e-10
-3.03898e-10
1.41507e-10
-3.10793e-10
2.60962e-09
-4.94284e-10
3.09248e-09
-9.1142e-09
-2.3723e-09
-6.30753e-08
-3.45233e-07
-2.28643e-06
-4.89747e-06
-6.88386e-07
7.78102e-06
1.22727e-05
7.85807e-06
2.49116e-06
6.02749e-06
1.2861e-06
-1.36357e-05
-1.8777e-05
-1.65866e-05
-1.39446e-05
-1.27939e-05
-1.39447e-05
-1.65865e-05
-1.87771e-05
-1.36355e-05
1.28582e-06
6.02784e-06
2.49072e-06
7.85863e-06
1.2272e-05
7.78187e-06
-6.89513e-07
-4.89609e-06
-2.28835e-06
-3.42538e-07
-6.7046e-08
1.29364e-09
-5.39044e-08
-2.92477e-07
-1.9619e-06
-4.57271e-06
-2.20956e-06
4.1182e-06
8.41832e-06
6.22308e-06
1.83488e-07
6.83169e-07
7.47571e-07
-6.63959e-06
-1.06665e-05
-9.22909e-06
-6.17866e-06
-4.65594e-06
-6.17821e-06
-9.22998e-06
-1.06651e-05
-6.6415e-06
7.49973e-07
6.80165e-07
1.874e-07
6.21869e-06
8.42371e-06
4.11093e-06
-2.20211e-06
-4.58275e-06
-1.94839e-06
-3.06635e-07
-3.21076e-08
-2.62358e-08
-1.83749e-08
-3.34722e-07
-1.9122e-06
-6.08256e-06
-5.58765e-06
2.22744e-06
4.22297e-06
2.23815e-06
-1.31073e-07
8.29713e-06
6.5318e-06
-5.48819e-06
-1.05143e-05
-1.28348e-05
-1.57431e-05
-1.74455e-05
-1.60619e-05
-1.17692e-05
-6.08662e-06
8.96846e-07
1.00008e-05
8.79279e-06
-8.39337e-07
2.13501e-06
6.27282e-06
2.90316e-06
-5.41294e-06
-5.61618e-06
-1.73929e-06
-3.09794e-07
-2.01756e-08
-2.64925e-08
9.63946e-09
-9.7772e-09
1.04011e-08
-6.03691e-09
6.59481e-09
-5.61904e-09
4.467e-09
-4.28283e-09
3.73027e-09
-3.25319e-09
2.98279e-09
-2.66595e-09
2.38439e-09
-2.16104e-09
1.94204e-09
1.90136e-09
-1.69234e-09
1.48855e-09
-1.33067e-09
1.14868e-09
-8.75402e-10
7.74898e-10
-6.63237e-10
-1.30825e-11
-9.77014e-11
3.39121e-10
2.25494e-09
-3.67837e-10
2.27983e-10
-9.74207e-09
-2.58116e-09
-7.93644e-09
7.1875e-08
3.98215e-07
2.48932e-06
5.2734e-06
7.35693e-07
-8.44675e-06
-1.34077e-05
-8.71227e-06
-2.99596e-06
-6.97759e-06
-1.83711e-06
1.4484e-05
2.00011e-05
1.7451e-05
1.44492e-05
1.31492e-05
1.44492e-05
1.74509e-05
2.00013e-05
1.44838e-05
-1.83685e-06
-6.97793e-06
-2.99554e-06
-8.71279e-06
-1.3407e-05
-8.44755e-06
7.36731e-07
5.27204e-06
2.4911e-06
3.95658e-07
7.57665e-08
-1.12223e-08
4.05096e-08
2.73392e-07
1.87768e-06
4.3782e-06
2.12011e-06
-3.91019e-06
-7.99001e-06
-5.90733e-06
-1.81416e-07
-6.38933e-07
-7.08534e-07
6.23617e-06
1.00257e-05
8.68036e-06
5.81701e-06
4.38818e-06
5.81654e-06
8.68133e-06
1.00242e-05
6.23818e-06
-7.11125e-07
-6.35443e-07
-1.85341e-07
-5.90265e-06
-7.99681e-06
-3.90366e-06
2.11187e-06
4.39142e-06
1.86692e-06
2.91044e-07
1.52372e-08
1.41497e-08
2.00251e-08
3.88501e-07
2.09396e-06
6.55374e-06
5.97874e-06
-2.44826e-06
-4.62544e-06
-2.56794e-06
-6.39866e-08
-9.31091e-06
-7.287e-06
5.99194e-06
1.14462e-05
1.38914e-05
1.70306e-05
1.88604e-05
1.72707e-05
1.24318e-05
6.0476e-06
-1.68668e-06
-1.15884e-05
-1.00978e-05
6.74993e-07
-2.36624e-06
-6.77877e-06
-3.04296e-06
5.90664e-06
6.08782e-06
1.90726e-06
3.47171e-07
1.30117e-08
1.18948e-08
-2.35412e-08
5.08616e-09
-1.07865e-08
9.02096e-09
-5.34698e-09
6.45557e-09
-5.21338e-09
4.25252e-09
-4.14307e-09
3.59647e-09
-3.15787e-09
2.90865e-09
-2.60614e-09
2.3319e-09
-2.11056e-09
-2.06832e-09
1.83867e-09
-1.66011e-09
1.45364e-09
-1.16636e-09
1.08001e-09
-9.59171e-10
2.67801e-10
-3.71952e-10
8.46743e-10
1.8271e-09
-5.59243e-10
-2.15516e-09
-9.87564e-09
-2.02893e-09
1.21595e-09
3.40205e-08
-2.17207e-08
-3.66384e-07
-2.64857e-06
-5.72228e-06
-9.56307e-07
8.90162e-06
1.43156e-05
9.26442e-06
3.15096e-06
7.66128e-06
2.01634e-06
-1.60042e-05
-2.1967e-05
-1.89454e-05
-1.54615e-05
-1.39594e-05
-1.54615e-05
-1.89453e-05
-2.19671e-05
-1.60041e-05
2.01609e-06
7.6616e-06
3.15057e-06
9.2649e-06
1.43149e-05
8.9024e-06
-9.57282e-07
-5.72099e-06
-2.6503e-06
-3.64e-07
-2.5479e-08
3.71578e-08
-4.00408e-08
-2.73603e-07
-1.8109e-06
-4.20206e-06
-2.0355e-06
3.7255e-06
7.60581e-06
5.62298e-06
1.78214e-07
6.00029e-07
6.74022e-07
-5.87967e-06
-9.45904e-06
-8.19453e-06
-5.49592e-06
-4.14991e-06
-5.49539e-06
-8.19562e-06
-9.45743e-06
-5.88185e-06
6.77078e-07
5.96538e-07
1.82303e-07
5.61663e-06
7.61174e-06
3.71901e-06
-2.02212e-06
-4.21075e-06
-1.79828e-06
-3.00694e-07
-2.49276e-08
2.35106e-09
3.76532e-08
-3.51907e-07
-2.23053e-06
-7.12312e-06
-6.59221e-06
2.43159e-06
4.79244e-06
2.70129e-06
1.29656e-07
1.04363e-05
8.18068e-06
-6.51422e-06
-1.23801e-05
-1.48873e-05
-1.82672e-05
-2.02978e-05
-1.86159e-05
-1.33796e-05
-6.48074e-06
1.8213e-06
1.24216e-05
1.04979e-05
-1.54484e-06
1.8096e-06
6.8682e-06
3.01807e-06
-6.43204e-06
-6.47562e-06
-1.93777e-06
-2.76772e-07
4.47706e-08
5.64978e-09
1.87707e-08
-1.92269e-08
2.69132e-09
-1.17385e-08
7.68724e-09
-4.9988e-09
6.32002e-09
-4.91926e-09
4.10538e-09
-4.03766e-09
3.50588e-09
-3.09187e-09
2.85274e-09
-2.55933e-09
2.29635e-09
2.24463e-09
-2.05272e-09
1.8077e-09
-1.49978e-09
1.43242e-09
-1.26767e-09
5.42594e-10
-7.25924e-10
1.26205e-09
1.45239e-09
-6.47367e-10
-3.79639e-09
-8.97549e-09
1.40635e-09
1.36271e-08
4.41681e-08
2.73711e-08
4.99122e-08
3.10683e-07
2.62195e-06
5.84981e-06
7.91173e-07
-9.6571e-06
-1.52102e-05
-9.24758e-06
-2.16396e-06
-6.7827e-06
1.07737e-07
2.09966e-05
2.84612e-05
2.58201e-05
2.24577e-05
2.09711e-05
2.24577e-05
2.582e-05
2.84613e-05
2.09964e-05
1.0797e-07
-6.78299e-06
-2.16359e-06
-9.24804e-06
-1.52096e-05
-9.65783e-06
7.92107e-07
5.84859e-06
2.6236e-06
3.08398e-07
5.34759e-08
2.4333e-08
8.37904e-08
2.74798e-07
1.73298e-06
4.02837e-06
1.95545e-06
-3.55622e-06
-7.25759e-06
-5.367e-06
-1.761e-07
-5.6673e-07
-6.43531e-07
5.56344e-06
8.95578e-06
7.76259e-06
5.20973e-06
3.93722e-06
5.20913e-06
7.76374e-06
8.95401e-06
5.56603e-06
-6.4659e-07
-5.63105e-07
-1.81935e-07
-5.36152e-06
-7.26267e-06
-3.5428e-06
1.94741e-06
4.03476e-06
1.70111e-06
2.82582e-07
6.27023e-08
8.41407e-08
1.52907e-08
3.10555e-07
2.17189e-06
7.38903e-06
6.92627e-06
-2.54069e-06
-4.74347e-06
-2.25732e-06
6.57478e-07
-1.07186e-05
-7.97468e-06
8.6771e-06
1.53337e-05
1.82532e-05
2.2299e-05
2.4962e-05
2.3512e-05
1.79801e-05
1.03566e-05
8.97047e-07
-1.13622e-05
-9.93892e-06
2.64221e-06
-1.80532e-06
-7.97819e-06
-3.9778e-06
6.30753e-06
6.53269e-06
1.87747e-06
2.73863e-07
1.60484e-08
6.88928e-08
2.27882e-08
2.89055e-08
-1.3029e-08
2.24719e-09
-1.22018e-08
6.66718e-09
-4.82086e-09
6.19308e-09
-4.73338e-09
4.00574e-09
-3.9632e-09
3.45181e-09
-3.04671e-09
2.81897e-09
-2.52421e-09
-2.53089e-09
2.21395e-09
-1.90232e-09
1.84667e-09
-1.5955e-09
8.36315e-10
-1.18342e-09
1.62794e-09
1.24057e-09
-3.72816e-10
-4.84039e-09
-7.8185e-09
4.98062e-09
2.22831e-08
4.24062e-08
2.52054e-09
-6.93163e-08
-2.50735e-07
-6.44738e-07
-3.04357e-06
-6.13749e-06
-6.37439e-08
1.18895e-05
1.8232e-05
1.14161e-05
3.09196e-06
7.70613e-06
-6.7134e-07
-2.48453e-05
-3.39167e-05
-3.16714e-05
-2.85277e-05
-2.71128e-05
-2.85277e-05
-3.16713e-05
-3.39168e-05
-2.48451e-05
-6.71558e-07
7.70641e-06
3.09161e-06
1.14165e-05
1.82315e-05
1.18902e-05
-6.46301e-08
-6.13633e-06
-3.04513e-06
-6.42545e-07
-2.54143e-07
-6.642e-08
-3.5662e-08
-2.09304e-07
-1.64589e-06
-3.88399e-06
-1.89766e-06
3.3992e-06
6.94695e-06
5.13956e-06
1.74336e-07
5.36177e-07
6.15398e-07
-5.28216e-06
-8.50744e-06
-7.37779e-06
-4.95454e-06
-3.74756e-06
-4.95391e-06
-7.37908e-06
-8.50537e-06
-5.28477e-06
6.18653e-07
5.30939e-07
1.79357e-07
5.13534e-06
6.95996e-06
3.39102e-06
-1.89733e-06
-3.92045e-06
-1.63879e-06
-2.05567e-07
5.18364e-08
-6.11305e-08
-1.97985e-07
-6.97275e-07
-2.61239e-06
-7.82608e-06
-6.71959e-06
3.94441e-06
6.24988e-06
3.10632e-06
-6.96566e-07
1.14516e-05
7.65082e-06
-1.1808e-05
-1.98664e-05
-2.37088e-05
-2.8784e-05
-3.19802e-05
-2.99585e-05
-2.26224e-05
-1.23339e-05
2.306e-07
1.56434e-05
1.50577e-05
1.07182e-06
5.36997e-06
1.11981e-05
5.58996e-06
-6.57363e-06
-7.35554e-06
-2.49256e-06
-6.74197e-07
-1.99174e-07
-9.10724e-08
3.44677e-08
2.37279e-08
3.49301e-08
-7.67523e-09
2.6463e-09
-1.22752e-08
6.03466e-09
-4.70402e-09
6.08818e-09
-4.64751e-09
3.94149e-09
-3.91193e-09
3.43776e-09
-3.01648e-09
2.77631e-09
2.73394e-09
-2.41312e-09
2.31907e-09
-1.95449e-09
1.20096e-09
-1.75089e-09
1.93809e-09
1.19202e-09
3.73867e-10
-5.59318e-09
-7.4483e-09
6.82883e-09
2.7069e-08
3.56132e-08
-2.50992e-08
-1.18798e-07
-2.05571e-07
-1.11317e-08
7.66651e-07
4.04187e-06
8.01314e-06
1.36133e-06
-1.28741e-05
-2.19643e-05
-1.67781e-05
-9.79166e-06
-1.70856e-05
-9.70365e-06
1.4919e-05
2.13439e-05
1.46226e-05
7.84848e-06
5.0365e-06
7.84851e-06
1.46225e-05
2.1344e-05
1.49188e-05
-9.70345e-06
-1.70859e-05
-9.79133e-06
-1.67785e-05
-2.19638e-05
-1.28748e-05
1.36216e-06
8.01203e-06
4.04336e-06
7.64559e-07
-7.85637e-09
-2.08333e-07
-8.19519e-08
2.17934e-07
1.64581e-06
3.78045e-06
1.83307e-06
-3.27446e-06
-6.67121e-06
-4.93005e-06
-1.68702e-07
-5.08696e-07
-5.9119e-07
5.03068e-06
8.10721e-06
7.03427e-06
4.72619e-06
3.57765e-06
4.72546e-06
7.03575e-06
8.10508e-06
5.03359e-06
-5.9573e-07
-5.04191e-07
-1.72716e-07
-4.91795e-06
-6.67938e-06
-3.27803e-06
1.79451e-06
3.79256e-06
1.68079e-06
3.38202e-07
-7.09264e-08
-2.53217e-07
-2.59363e-07
6.55322e-07
3.58254e-06
9.99729e-06
8.63556e-06
-4.2603e-06
-8.59983e-06
-6.8013e-06
-3.53633e-06
-1.7614e-05
-1.32742e-05
8.59045e-06
1.68243e-05
1.98851e-05
2.41384e-05
2.59122e-05
2.14568e-05
1.11116e-05
-1.62089e-06
-1.51693e-05
-2.9901e-05
-2.50362e-05
-4.58621e-06
-5.61684e-06
-1.00015e-05
-3.11188e-06
9.73796e-06
9.54178e-06
3.23737e-06
6.01214e-07
-1.49435e-07
-1.86094e-07
-1.39601e-07
7.1034e-10
1.75419e-08
3.698e-08
-4.26161e-09
3.04703e-09
-1.2187e-08
5.75937e-09
-4.60269e-09
6.0034e-09
-4.65417e-09
3.9169e-09
-3.86875e-09
3.43855e-09
-3.04207e-09
-2.98389e-09
2.87894e-09
-2.38942e-09
1.68955e-09
-2.40915e-09
2.15017e-09
1.16495e-09
1.62433e-09
-6.13136e-09
-8.45145e-09
6.12398e-09
2.9921e-08
3.04313e-08
-4.68143e-08
-1.49049e-07
-1.73736e-07
9.49003e-08
5.05996e-07
4.64509e-07
-2.87711e-06
-8.38124e-06
-3.75355e-06
8.94743e-06
1.73833e-05
1.22444e-05
7.34949e-06
1.94438e-05
1.38868e-05
-1.25305e-05
-1.79991e-05
-7.79976e-06
2.38311e-06
6.64812e-06
2.38308e-06
-7.79969e-06
-1.79992e-05
-1.25303e-05
1.38866e-05
1.9444e-05
7.34919e-06
1.22448e-05
1.73828e-05
8.94804e-06
-3.75435e-06
-8.38019e-06
-2.87853e-06
4.66508e-07
5.02854e-07
9.75452e-08
-2.09345e-07
-3.84144e-07
-1.60397e-06
-3.59898e-06
-1.73802e-06
3.14897e-06
6.40212e-06
4.736e-06
1.68706e-07
4.87931e-07
5.68874e-07
-4.8071e-06
-7.74892e-06
-6.72597e-06
-4.52095e-06
-3.42515e-06
-4.52016e-06
-6.72757e-06
-7.74642e-06
-4.81083e-06
5.7288e-07
4.83632e-07
1.79379e-07
4.72856e-06
6.39816e-06
3.11134e-06
-1.72044e-06
-3.53774e-06
-1.46056e-06
-4.02759e-07
-4.04421e-07
-3.10455e-07
4.3533e-07
7.11371e-07
-1.92627e-06
-1.03511e-05
-1.1952e-05
-7.35357e-07
3.29012e-06
3.42334e-06
3.53078e-06
2.33057e-05
2.08644e-05
-2.09451e-06
-8.56664e-06
-8.54764e-06
-1.06155e-05
-1.19855e-05
-9.40998e-06
-3.41153e-06
2.84073e-06
9.2623e-06
1.85288e-05
8.92305e-06
-1.41428e-05
-8.9716e-06
1.90404e-06
-2.97483e-07
-1.05726e-05
-8.43384e-06
-1.35607e-06
7.19413e-07
5.79312e-07
2.57227e-08
-1.4582e-07
-1.58794e-07
-2.24088e-08
1.11681e-08
3.71014e-08
-2.66062e-09
3.1128e-09
-1.20645e-08
5.80943e-09
-4.50839e-09
5.92575e-09
-4.73614e-09
3.92798e-09
-3.86876e-09
3.42648e-09
3.61637e-09
-2.8879e-09
2.3566e-09
-3.12715e-09
2.24061e-09
9.00468e-10
3.31632e-09
-6.12547e-09
-1.05722e-08
2.57667e-09
3.25784e-08
3.31191e-08
-5.50965e-08
-1.62263e-07
-1.2144e-07
2.67899e-07
7.86477e-07
9.87044e-07
4.11314e-07
1.45313e-06
3.75645e-06
-3.36518e-06
-1.46465e-05
-1.53121e-05
3.23076e-06
2.14651e-05
1.82261e-05
3.52567e-05
7.99246e-05
0.000105406
0.000115768
0.000122548
0.000124906
0.000122548
0.000115768
0.000105407
7.99245e-05
3.52569e-05
1.82258e-05
2.14654e-05
3.2304e-06
-1.53116e-05
-1.4647e-05
-3.36443e-06
3.75546e-06
1.45448e-06
4.09404e-07
9.90057e-07
7.83946e-07
3.0237e-07
1.064e-07
1.34633e-06
3.46085e-06
1.74756e-06
-2.9976e-06
-6.17673e-06
-4.58193e-06
-1.70466e-07
-4.6209e-07
-5.45272e-07
4.6052e-06
7.4254e-06
6.44881e-06
4.33663e-06
3.28825e-06
4.33566e-06
6.4507e-06
7.42255e-06
4.60882e-06
-5.49969e-07
-4.53362e-07
-1.76787e-07
-4.58278e-06
-6.21059e-06
-2.97953e-06
1.81844e-06
3.61059e-06
1.28e-06
-2.58187e-07
-2.68897e-07
8.11346e-07
1.72854e-06
1.52643e-06
1.16781e-06
5.36035e-06
4.69824e-06
-3.68367e-06
1.48451e-06
1.15076e-05
1.75078e-05
-3.92534e-06
-1.04724e-06
2.73134e-05
3.90477e-05
4.59598e-05
5.76708e-05
7.0304e-05
7.87584e-05
8.06791e-05
7.57048e-05
6.08176e-05
3.29959e-05
2.14728e-05
2.63001e-05
4.40307e-06
-1.60593e-05
-1.42795e-05
9.40712e-07
3.88302e-06
5.5842e-07
6.04622e-07
1.00544e-06
8.0912e-07
2.01041e-07
-8.73844e-08
-1.5842e-07
-3.36003e-08
7.86226e-09
3.687e-08
-2.50814e-09
2.77127e-09
-1.18956e-08
6.19234e-09
-4.43513e-09
5.82314e-09
-4.90938e-09
3.94226e-09
-3.8194e-09
-3.59461e-09
3.32399e-09
-3.80341e-09
2.28207e-09
9.89335e-11
5.16938e-09
-5.07339e-09
-1.26357e-08
-3.90332e-09
3.41498e-08
4.55788e-08
-4.78479e-08
-1.75458e-07
-1.02142e-07
3.71614e-07
8.55367e-07
5.47215e-07
-1.37783e-06
-4.54244e-06
-9.15743e-06
-1.01875e-05
7.73619e-06
3.6824e-05
5.16221e-05
3.21637e-05
-1.86038e-06
-1.97532e-05
-6.06735e-05
-0.000126592
-0.000162055
-0.000177135
-0.000188417
-0.000192909
-0.000188417
-0.000177135
-0.000162055
-0.000126592
-6.06737e-05
-1.9753e-05
-1.86065e-06
3.2164e-05
5.16217e-05
3.68245e-05
7.73549e-06
-1.01866e-05
-9.15871e-06
-4.54062e-06
-1.38072e-06
5.4963e-07
8.21944e-07
1.50412e-07
-1.56624e-06
-3.5875e-06
-1.71317e-06
2.9734e-06
6.00349e-06
4.41234e-06
1.49051e-07
4.41146e-07
5.32707e-07
-4.42145e-06
-7.13634e-06
-6.20077e-06
-4.17008e-06
-3.16411e-06
-4.16899e-06
-6.20275e-06
-7.13303e-06
-4.42619e-06
5.39181e-07
4.35419e-07
1.53333e-07
4.3852e-06
6.01634e-06
3.0321e-06
-1.57232e-06
-3.68034e-06
-2.04021e-06
-5.03101e-07
1.14554e-06
2.23877e-06
7.52872e-07
-4.54686e-06
-1.10547e-05
-1.53653e-05
-1.79933e-06
2.67001e-05
3.23074e-05
1.52331e-05
-1.13825e-05
-8.70017e-06
-2.95362e-05
-7.55322e-05
-0.000102177
-0.000127064
-0.000156907
-0.000176456
-0.000171179
-0.000137544
-8.2686e-05
-1.60639e-05
5.18557e-05
7.73425e-05
6.0254e-05
5.97109e-05
5.38388e-05
2.69154e-05
-5.79415e-06
-1.47741e-05
-9.41602e-06
-4.70562e-06
-1.18455e-06
5.11325e-07
7.99366e-07
2.8482e-07
-5.01802e-08
-1.54598e-07
-3.68095e-08
8.0587e-09
3.67516e-08
-3.78508e-09
2.05775e-09
-1.15147e-08
6.91733e-09
-4.47959e-09
5.60835e-09
-5.10355e-09
4.18029e-09
4.27537e-09
-4.38436e-09
2.59185e-09
-1.36205e-09
6.62783e-09
-2.88211e-09
-1.28607e-08
-1.25363e-08
3.10701e-08
6.38162e-08
-2.32812e-08
-1.94316e-07
-1.4663e-07
3.92721e-07
8.95938e-07
2.31349e-07
-2.16862e-06
-4.36867e-06
-2.3705e-06
9.69431e-06
2.75952e-05
2.51512e-05
-8.04546e-06
-5.87391e-05
-0.000100363
-0.000134928
-0.000177945
-0.000180163
-0.000157671
-0.000200895
-0.000297837
-0.000391416
-0.000430625
-0.000391416
-0.000297837
-0.000200895
-0.000157671
-0.000180163
-0.000177945
-0.000134928
-0.000100363
-5.87387e-05
-8.04596e-06
2.51519e-05
2.75943e-05
9.69552e-06
-2.37223e-06
-4.36591e-06
-2.17092e-06
2.63796e-07
1.11107e-06
1.81603e-06
3.17025e-06
1.4259e-06
-2.85802e-06
-5.71472e-06
-4.24415e-06
-1.71676e-07
-4.418e-07
-5.13517e-07
4.26479e-06
6.87588e-06
5.97457e-06
4.01905e-06
3.05292e-06
4.01811e-06
5.97748e-06
6.87175e-06
4.2692e-06
-5.1986e-07
-4.32956e-07
-1.89365e-07
-4.23712e-06
-5.686e-06
-2.74072e-06
1.35228e-06
2.70686e-06
1.16554e-06
1.71725e-06
2.83215e-06
6.17058e-07
-5.86979e-06
-8.89964e-06
2.94368e-06
3.20798e-05
4.38956e-05
1.11664e-05
-3.71131e-05
-8.03995e-05
-9.69451e-05
-0.000113953
-7.94071e-05
-1.83489e-05
-4.13129e-06
-1.69222e-05
-3.94084e-05
-7.93425e-05
-0.000144322
-0.000225112
-0.000293377
-0.000322134
-0.000304053
-0.000215312
-9.09673e-05
-2.41605e-05
7.86718e-06
3.31144e-05
4.72049e-05
3.14776e-05
7.93823e-06
-2.96454e-06
-4.35457e-06
-1.83544e-06
1.65688e-07
7.41205e-07
3.10771e-07
-3.89174e-08
-1.54334e-07
-3.40626e-08
1.17892e-08
3.62243e-08
-6.80421e-09
1.27304e-09
-1.06496e-08
7.8217e-09
-4.79296e-09
5.42956e-09
-4.99995e-09
-5.48488e-09
3.30208e-09
-3.1917e-09
7.22175e-09
-3.35114e-10
-9.8322e-09
-2.07134e-08
2.00751e-08
7.81485e-08
1.91525e-08
-2.0227e-07
-2.52719e-07
3.22704e-07
1.0068e-06
2.40767e-07
-2.60723e-06
-4.46344e-06
-4.76916e-07
1.03789e-05
1.74725e-05
8.06082e-06
-1.33482e-05
-4.5311e-05
-7.41698e-05
-6.96526e-05
1.58018e-05
0.000185918
0.000319211
0.000376109
0.000444119
0.000521758
0.000580363
0.000603124
0.000580363
0.000521758
0.000444119
0.000376109
0.000319211
0.000185918
1.58016e-05
-6.96523e-05
-7.41702e-05
-4.53105e-05
-1.33488e-05
8.06164e-06
1.74714e-05
1.03805e-05
-4.79552e-07
-4.46126e-06
-2.63876e-06
3.11812e-08
-3.79122e-07
-2.90703e-06
-1.83152e-06
2.54774e-06
5.6242e-06
4.22508e-06
1.76806e-07
3.92627e-07
4.85474e-07
-4.11114e-06
-6.63403e-06
-5.77208e-06
-3.88452e-06
-2.9529e-06
-3.88232e-06
-5.77483e-06
-6.6309e-06
-4.11896e-06
4.9584e-07
3.84887e-07
1.84319e-07
4.21911e-06
5.70027e-06
2.52254e-06
-2.15575e-06
-3.48703e-06
2.47068e-07
2.94029e-06
3.54776e-07
-8.03286e-06
-1.24406e-05
-6.96782e-09
2.43626e-05
2.46826e-05
-1.4791e-05
-7.51723e-05
-0.000122881
-9.02329e-05
2.2168e-05
0.000185325
0.000256392
0.000246597
0.000283902
0.000375325
0.000481131
0.000551227
0.00054045
0.000431319
0.000242698
3.19073e-05
-0.000129955
-0.000245069
-0.000300483
-0.000237522
-0.000133349
-5.50582e-05
-1.33675e-05
1.42745e-05
2.14651e-05
1.01713e-05
-5.17517e-07
-3.80434e-06
-2.01904e-06
1.75448e-08
7.15302e-07
3.11144e-07
-5.08212e-08
-1.57573e-07
-2.34231e-08
1.86978e-08
3.36448e-08
-1.16123e-08
1.16164e-09
-9.17416e-09
8.61458e-09
-5.19274e-09
5.33504e-09
4.15249e-09
-5.37968e-09
6.94661e-09
1.25142e-09
-3.73616e-09
-2.45692e-08
2.41017e-09
7.69437e-08
7.08797e-08
-1.70223e-07
-3.77805e-07
1.41154e-07
1.16104e-06
7.07509e-07
-2.57999e-06
-4.78364e-06
1.18767e-06
1.54099e-05
2.34321e-05
9.01479e-06
-3.58583e-05
-0.000106126
-0.000135771
-2.69954e-05
0.000250659
0.000563285
0.000747895
0.000879152
0.00107785
0.00137261
0.00182403
0.00230456
0.00251684
0.00230456
0.00182403
0.00137261
0.00107785
0.000879152
0.000747895
0.000563285
0.000250659
-2.69951e-05
-0.000135772
-0.000106126
-3.58591e-05
9.01583e-06
2.34305e-05
1.54124e-05
1.18563e-06
-4.75296e-06
-2.37546e-06
2.05916e-06
4.311e-06
1.68194e-06
-3.05069e-06
-5.6175e-06
-3.95928e-06
-7.754e-08
-3.96828e-07
-5.05999e-07
3.97413e-06
6.42925e-06
5.59232e-06
3.75969e-06
2.86017e-06
3.75866e-06
5.5952e-06
6.4206e-06
3.98237e-06
-5.07477e-07
-3.80664e-07
-1.05728e-07
-3.93736e-06
-5.61282e-06
-3.16076e-06
1.26042e-06
4.65091e-06
4.50221e-06
4.77642e-07
-9.46267e-06
-1.49554e-05
2.46752e-06
4.11462e-05
5.50518e-05
-3.63029e-06
-0.000123332
-0.000175889
-1.43215e-05
0.000285624
0.000504325
0.000452017
0.000299317
0.000208526
0.000199708
0.000330073
0.000579582
0.000880759
0.00119348
0.00147603
0.00162622
0.00152395
0.00115842
0.000715598
0.000337085
9.62658e-06
-0.000182513
-0.000205941
-0.000123282
-3.87374e-05
9.04916e-06
2.20092e-05
1.25505e-05
1.09206e-06
-3.34467e-06
-2.02586e-06
1.80994e-08
7.40271e-07
2.86031e-07
-8.88137e-08
-1.57184e-07
-1.06374e-09
2.56561e-08
2.68433e-08
-1.70321e-08
2.6897e-09
-7.2191e-09
9.01029e-09
-6.06034e-09
-6.91685e-09
5.36599e-09
1.09296e-09
2.82107e-09
-2.10788e-08
-1.52865e-08
5.53792e-08
1.09528e-07
-8.42437e-08
-4.47766e-07
-1.45981e-07
1.17866e-06
1.51203e-06
-1.97964e-06
-5.86417e-06
7.45535e-10
1.69353e-05
2.13946e-05
-1.54701e-05
-8.78978e-05
-0.000132005
-4.84851e-05
0.000198507
0.00050317
0.000581136
0.000190946
-0.000606027
-0.00160619
-0.00252753
-0.00307477
-0.00318187
-0.00297702
-0.00282793
-0.00297702
-0.00318187
-0.00307477
-0.00252753
-0.00160619
-0.000606027
0.000190946
0.000581137
0.00050317
0.000198507
-4.84855e-05
-0.000132005
-8.78988e-05
-1.54687e-05
2.13922e-05
1.69372e-05
-2.91177e-08
-6.06411e-06
-3.2999e-06
-1.56497e-06
-3.27238e-07
2.45669e-06
4.85608e-06
3.83966e-06
2.61934e-07
4.4182e-07
4.53618e-07
-3.87889e-06
-6.23238e-06
-5.41864e-06
-3.64855e-06
-2.78001e-06
-3.64628e-06
-5.4261e-06
-6.22775e-06
-3.88068e-06
4.80509e-07
4.13886e-07
2.38374e-07
3.81989e-06
4.93157e-06
2.30245e-06
-3.2973e-07
-2.74897e-07
-9.35823e-07
-9.6921e-06
-1.605e-05
3.68471e-06
5.12109e-05
6.33375e-05
-4.01091e-05
-0.000214397
-0.000208332
0.00015537
0.000630475
0.000731952
0.000211848
-0.000553848
-0.00118938
-0.00155348
-0.00180651
-0.002263
-0.00289632
-0.00337936
-0.00331285
-0.00248343
-0.00111993
0.000237407
0.00116685
0.00149553
0.00135204
0.00102635
0.000599713
0.000175156
-9.83432e-05
-0.00015147
-8.22013e-05
-1.22739e-05
1.57819e-05
1.20131e-05
1.42382e-06
-3.34363e-06
-2.02064e-06
1.67694e-07
7.97058e-07
2.03595e-07
-1.48592e-07
-1.36631e-07
3.13142e-08
2.61365e-08
1.5196e-08
-1.98074e-08
5.80469e-09
-5.25224e-09
7.22238e-09
1.06698e-08
-7.08509e-09
1.2468e-08
-1.79372e-08
-1.78901e-08
1.49779e-08
1.18534e-07
2.15653e-08
-3.89587e-07
-4.53666e-07
8.80379e-07
2.25105e-06
-6.15333e-07
-6.96424e-06
-4.13706e-06
1.59895e-05
2.60364e-05
-1.87193e-05
-9.80363e-05
-9.10084e-05
9.43878e-05
0.000370027
0.000525574
0.000268655
-0.000713093
-0.00236919
-0.00391539
-0.00455327
-0.00483246
-0.00611492
-0.00861898
-0.0111129
-0.0121351
-0.0111129
-0.00861898
-0.00611492
-0.00483246
-0.00455327
-0.00391539
-0.00236919
-0.000713093
0.000268655
0.000525574
0.000370027
9.43873e-05
-9.10076e-05
-9.80375e-05
-1.87171e-05
2.60348e-05
1.60185e-05
-3.9412e-06
-5.67282e-06
2.39511e-06
3.72486e-06
-1.65828e-06
-5.62732e-06
-4.2167e-06
-1.29108e-07
-2.56135e-07
-4.42757e-07
3.73184e-06
6.0426e-06
5.28258e-06
3.54622e-06
2.70997e-06
3.54129e-06
5.28437e-06
6.03627e-06
3.76221e-06
-4.53954e-07
-2.91789e-07
-2.10727e-07
-4.08121e-06
-5.48342e-06
-1.7278e-06
3.71282e-06
3.62756e-06
-6.74188e-06
-1.47586e-05
3.71171e-06
5.61933e-05
7.59771e-05
-4.21519e-05
-0.000250231
-0.000217663
0.000296317
0.000906295
0.000721414
-0.000700519
-0.00245324
-0.00311211
-0.00208413
-0.000505293
7.1722e-05
-0.000724791
-0.00235563
-0.00426446
-0.00615792
-0.00761635
-0.00809746
-0.00733201
-0.00556337
-0.00330524
-0.00118317
0.000222408
0.000836997
0.000820017
0.000460862
8.98006e-05
-7.92168e-05
-7.06953e-05
-1.55778e-05
1.39056e-05
1.20128e-05
1.09141e-06
-3.80314e-06
-1.83702e-06
5.13189e-07
8.07025e-07
2.80145e-08
-1.88564e-07
-8.84209e-08
6.60628e-08
8.60841e-09
8.76371e-09
-2.29615e-08
1.40556e-08
-1.06101e-08
6.11141e-08
-5.77677e-08
6.27325e-08
-8.86639e-08
6.26489e-08
2.50539e-09
1.86889e-07
-3.10226e-07
-5.12671e-07
1.76963e-07
2.52567e-06
1.16102e-06
-6.43683e-06
-9.79299e-06
1.10529e-05
3.53118e-05
-2.80514e-06
-0.000105879
-0.000101853
0.00016494
0.00051558
0.000513133
-8.62257e-05
-0.00117941
-0.00230867
-0.00197397
0.00155115
0.0070028
0.011729
0.0143979
0.0133128
0.00951413
0.00743536
0.00951413
0.0133128
0.0143979
0.011729
0.0070028
0.00155115
-0.00197397
-0.00230867
-0.00117941
-8.62252e-05
0.000513133
0.00051558
0.000164939
-0.000101852
-0.000105881
-2.80305e-06
3.52828e-05
1.08615e-05
-1.10589e-05
-9.38563e-06
-2.84468e-07
5.00729e-06
5.23126e-06
3.22783e-06
-1.626e-07
5.52475e-07
4.48536e-07
-3.58772e-06
-5.99376e-06
-5.0702e-06
-3.52147e-06
-2.56792e-06
-3.52013e-06
-5.08396e-06
-5.96461e-06
-3.59076e-06
4.459e-07
4.17083e-07
-8.51926e-08
3.51468e-06
5.45731e-06
4.24133e-06
-7.22705e-07
-8.78958e-06
-1.37344e-05
2.30287e-06
5.11568e-05
7.60041e-05
-4.75702e-05
-0.000309561
-0.00033009
0.000319547
0.00119995
0.000791077
-0.00166683
-0.00413432
-0.00334176
0.00131632
0.00602985
0.00816151
0.00921027
0.0105986
0.0127589
0.0148461
0.0142696
0.00941439
0.00198971
-0.00413634
-0.00685442
-0.00721814
-0.00626218
-0.00419443
-0.00181248
-6.50245e-05
0.00057493
0.000440214
0.000122918
-5.26775e-05
-6.52008e-05
-1.55503e-05
1.57542e-05
1.25799e-05
-5.48122e-07
-4.3228e-06
-1.21745e-06
1.03949e-06
5.44039e-07
-1.12867e-07
-2.37121e-07
5.547e-08
3.6877e-09
5.59505e-08
-6.48318e-08
5.07836e-08
-5.44043e-08
5.98934e-07
-5.97444e-07
5.99252e-07
-6.44596e-07
6.69333e-07
-5.44353e-07
6.55817e-07
-1.23347e-06
4.34501e-07
9.68931e-07
3.65504e-06
-4.78916e-06
-1.22434e-05
-2.15273e-07
4.22958e-05
2.86843e-05
-9.25185e-05
-0.000154693
0.000155478
0.000621513
0.000372845
-0.00106623
-0.00258993
-0.00258266
5.80631e-05
0.00674157
0.0167081
0.0213544
0.020097
0.0267518
0.0389413
0.0454474
0.0466547
0.0454474
0.0389413
0.0267518
0.020097
0.0213544
0.0167081
0.00674157
5.80655e-05
-0.00258267
-0.00258993
-0.00106623
0.000372849
0.00062151
0.000155482
-0.000154697
-9.2514e-05
2.87055e-05
4.24913e-05
1.01841e-06
-9.3409e-06
-3.38024e-06
1.23684e-06
-3.98992e-06
-3.21363e-06
-1.39345e-06
3.14983e-07
-9.97737e-07
4.24972e-06
5.09819e-06
5.63259e-06
2.76115e-06
3.19286e-06
2.76037e-06
5.62711e-06
5.13075e-06
4.23575e-06
-1.06204e-06
2.17455e-07
-1.09685e-06
-2.76069e-06
-4.47274e-06
-6.72752e-07
-3.35129e-06
-5.78888e-06
1.02307e-06
4.15415e-05
6.31622e-05
-4.1955e-05
-0.00030978
-0.00036304
0.000376485
0.00158152
0.0010887
-0.00253115
-0.00585073
-0.00255075
0.00792773
0.0168617
0.0138445
0.00231072
-0.00225431
0.00207474
0.00987373
0.020402
0.0307746
0.0354161
0.0325715
0.0268362
0.0204775
0.0115831
0.002824
-0.00290623
-0.00465464
-0.00310025
-0.000885302
0.000235031
0.000353345
0.000130896
-5.28973e-05
-7.0498e-05
-1.24759e-05
2.2215e-05
9.96087e-06
-2.74876e-06
-4.92732e-06
8.32854e-07