# vtk DataFile Version 3.0
PFC simulation results
ASCII
DATASET STRUCTURED_POINTS
DIMENSIONS 128 128 1
ORIGIN 0 0 0
SPACING 1 1 1
POINT_DATA 16384
SCALARS psi double
LOOKUP_TABLE default
-0.376203
-0.57747
-0.511189
-0.213995
0.167251
0.440771
0.476862
0.268705
-0.0771107
-0.398599
-0.565406
-0.534969
-0.346527
-0.0842178
0.165002
0.345749
0.445223
0.48103
0.481847
0.473073
0.470103
0.477779
0.493725
0.512928
0.531186
0.546379
0.558008
0.566201
0.571097
0.572863
0.572016
0.569641
0.567261
0.566438
0.568364
0.573649
0.582239
0.593135
0.603635
0.60816
0.597353
0.5585
0.478277
0.348062
0.17042
-0.0366735
-0.241758
-0.408435
-0.506232
-0.518936
-0.448732
-0.315489
-0.149823
0.0180453
0.166899
0.285581
0.368298
0.409883
0.404111
0.343171
0.218915
0.0331655
-0.186341
-0.388117
-0.523648
-0.566921
-0.511007
-0.364439
-0.155782
0.0719119
0.277343
0.428921
0.502804
0.484086
0.372717
0.186259
-0.0424551
-0.270002
-0.449887
-0.543497
-0.530119
-0.411461
-0.211084
0.0297625
0.261043
0.436968
0.527707
0.524887
0.441068
0.305103
0.153948
0.0227936
-0.0620775
-0.0851631
-0.0411566
0.0636599
0.208682
0.361337
0.487945
0.566485
0.591716
0.571286
0.518295
0.444766
0.357242
0.255075
0.132654
-0.0141183
-0.179739
-0.344726
-0.478796
-0.550125
-0.537156
-0.442026
-0.300968
-0.177133
-0.129668
-0.179379
-0.294343
-0.397722
-0.395481
-0.226243
0.0851301
0.42163
0.639057
0.639336
0.402835
0.0082678
-0.436759
-0.51592
-0.350259
-0.0253993
0.292159
0.438517
0.342333
0.0570023
-0.271446
-0.484674
-0.49473
-0.311969
-0.019954
0.273491
0.487039
0.592164
0.605337
0.56403
0.50601
0.458092
0.432858
0.430638
0.444295
0.464508
0.483688
0.497594
0.504965
0.506158
0.501853
0.492416
0.477966
0.458869
0.436284
0.412513
0.391047
0.376319
0.37314
0.385697
0.416007
0.461958
0.515534
0.562286
0.58314
0.558961
0.477115
0.337708
0.156073
-0.0409066
-0.223219
-0.366107
-0.454484
-0.482794
-0.451608
-0.363002
-0.21831
-0.0228414
0.202919
0.416676
0.563854
0.595925
0.483056
0.228697
-0.108508
-0.421427
-0.60837
-0.618868
-0.456155
-0.169971
0.151854
0.417148
0.567384
0.583985
0.476236
0.275238
0.028682
-0.212021
-0.403699
-0.515524
-0.530104
-0.44574
-0.277775
-0.0568649
0.175587
0.374863
0.502679
0.535908
0.47091
0.323375
0.124768
-0.0851151
-0.268739
-0.399465
-0.463074
-0.453533
-0.370031
-0.220357
-0.0269926
0.17421
0.347183
0.471186
0.545842
0.584069
0.600873
0.604995
0.595656
0.563929
0.497828
0.389951
0.245281
0.0846446
-0.0603966
-0.160282
-0.201819
-0.198071
-0.187485
-0.215897
-0.306916
-0.44241
-0.5671
-0.6081
-0.500931
-0.228892
0.138356
0.461177
0.609142
0.523991
0.234612
-0.142074
-0.42908
-0.349504
-0.0980937
0.200873
0.393745
0.378068
0.158617
-0.152932
-0.397347
-0.455478
-0.304458
-0.0156924
0.290878
0.510367
0.596487
0.562681
0.455769
0.327258
0.215211
0.138501
0.0995837
0.0906218
0.0995625
0.114786
0.127915
0.13473
0.13447
0.128238
0.117363
0.102397
0.0830359
0.0587777
0.0299003
-0.00172553
-0.032276
-0.0561334
-0.066474
-0.0562129
-0.0193659
0.047069
0.140885
0.252854
0.366546
0.460762
0.514406
0.512243
0.449108
0.330551
0.169976
-0.0151516
-0.204966
-0.376378
-0.502443
-0.554291
-0.50592
-0.343473
-0.0812831
0.224848
0.488043
0.623791
0.578546
0.34822
-0.000266062
-0.335457
-0.525219
-0.501353
-0.275354
0.0692885
0.404661
0.617705
0.654582
0.518706
0.255514
-0.0583935
-0.338656
-0.523086
-0.583606
-0.520755
-0.356861
-0.130797
0.110488
0.322051
0.468157
0.526283
0.489408
0.366415
0.180151
-0.0367008
-0.248219
-0.423955
-0.546351
-0.612115
-0.626585
-0.595838
-0.523176
-0.412819
-0.276467
-0.13425
-0.00646487
0.0971134
0.180632
0.256275
0.33466
0.417668
0.496747
0.556668
0.582424
0.56625
0.512303
0.436762
0.361576
0.303006
0.260027
0.209627
0.116102
-0.043873
-0.254954
-0.461069
-0.591476
-0.589159
-0.429258
-0.141434
0.176156
0.393657
0.422581
0.257386
-0.0270283
-0.299907
-0.338934
-0.107146
0.185668
0.40114
0.430922
0.252462
-0.0517243
-0.329867
-0.442528
-0.335262
-0.0603037
0.25589
0.48314
0.551121
0.465755
0.284865
0.0799418
-0.0951581
-0.216492
-0.284727
-0.313137
-0.317746
-0.312143
-0.305752
-0.303772
-0.307795
-0.316825
-0.328646
-0.341226
-0.353696
-0.366554
-0.381089
-0.398394
-0.418437
-0.439526
-0.45825
-0.469681
-0.467668
-0.445229
-0.395411
-0.312954
-0.196712
-0.0520342
0.108176
0.264741
0.395748
0.480951
0.505157
0.459637
0.342728
0.162066
-0.0610702
-0.289189
-0.472958
-0.562365
-0.52073
-0.34138
-0.0641418
0.226179
0.431138
0.478512
0.349318
0.0957288
-0.165628
-0.30846
-0.26276
-0.043684
0.25566
0.506113
0.606475
0.520222
0.273228
-0.0582812
-0.370513
-0.573389
-0.621654
-0.51626
-0.293421
-0.0140311
0.252749
0.449892
0.544451
0.528144
0.413542
0.229311
0.0133162
-0.195869
-0.36662
-0.479821
-0.531798
-0.533326
-0.504003
-0.464027
-0.42739
-0.3997
-0.380607
-0.367682
-0.358064
-0.347232
-0.327603
-0.289548
-0.224815
-0.130698
-0.0129766
0.114468
0.234381
0.33328
0.406877
0.460531
0.504306
0.544916
0.578295
0.586035
0.538248
0.407118
0.191829
-0.0621033
-0.275684
-0.377566
-0.336658
-0.171555
0.0493811
0.223806
0.263043
0.143879
-0.0790433
-0.300404
-0.409091
-0.172353
0.159488
0.428155
0.513561
0.373082
0.0661576
-0.261634
-0.449928
-0.408289
-0.15893
0.175317
0.437252
0.520062
0.409007
0.168029
-0.104927
-0.329017
-0.469283
-0.532304
-0.544975
-0.535315
-0.522662
-0.51631
-0.518518
-0.528054
-0.542347
-0.558322
-0.572825
-0.583236
-0.588193
-0.588003
-0.584448
-0.580088
-0.57742
-0.578239
-0.583288
-0.592008
-0.602111
-0.608966
-0.605172
-0.580983
-0.526073
-0.432504
-0.298138
-0.129268
0.0586468
0.242746
0.396539
0.494262
0.5148
0.445866
0.289894
0.0701435
-0.168574
-0.368791
-0.476322
-0.458236
-0.319491
-0.109198
0.0956864
0.22352
0.237946
0.155164
0.0414517
-0.0199341
0.022582
0.158451
0.319354
0.416035
0.384808
0.213643
-0.0547397
-0.335308
-0.533577
-0.585742
-0.477487
-0.240391
0.0590142
0.338338
0.527018
0.586523
0.513462
0.333747
0.0944943
-0.14835
-0.345404
-0.465107
-0.497379
-0.45203
-0.353957
-0.235413
-0.127168
-0.052141
-0.023464
-0.0456136
-0.115524
-0.222045
-0.345542
-0.46113
-0.545838
-0.585245
-0.575544
-0.521827
-0.435435
-0.330905
-0.221357
-0.113118
-0.00310762
0.117609
0.254376
0.398976
0.526593
0.602351
0.593649
0.486013
0.301235
0.103133
-0.0288221
-0.0453791
0.0459864
0.186596
0.289082
0.272931
0.111136
-0.143515
-0.382932
-0.497928
-0.423858
0.0408465
0.391976
0.571292
0.503517
0.217669
-0.155543
-0.437377
-0.494219
-0.302465
0.0403163
0.361377
0.507945
0.42324
0.158061
-0.167932
-0.434661
-0.57941
-0.606135
-0.558199
-0.485886
-0.425046
-0.390573
-0.381304
-0.388987
-0.405207
-0.424082
-0.441797
-0.455298
-0.461788
-0.459285
-0.447479
-0.428125
-0.404724
-0.381757
-0.363938
-0.355695
-0.360751
-0.381421
-0.417403
-0.464353
-0.512988
-0.549579
-0.558225
-0.524491
-0.439419
-0.302882
-0.125348
0.0725784
0.262877
0.414339
0.497631
0.491453
0.389847
0.208187
-0.0163529
-0.231848
-0.385032
-0.438762
-0.387126
-0.256908
-0.0928901
0.0604219
0.171951
0.233857
0.261133
0.272989
0.271755
0.241129
0.161053
0.0231199
-0.158663
-0.342574
-0.468773
-0.485434
-0.37291
-0.151416
0.124142
0.378925
0.542788
0.573607
0.466415
0.250609
-0.0182169
-0.273096
-0.455853
-0.53243
-0.497028
-0.368581
-0.183546
0.0150044
0.189873
0.317679
0.388481
0.399805
0.351248
0.244387
0.0879214
-0.0974434
-0.281451
-0.434901
-0.540631
-0.596894
-0.613098
-0.602946
-0.578331
-0.544574
-0.497601
-0.424961
-0.312534
-0.156309
0.0266501
0.197863
0.311952
0.338262
0.279048
0.177562
0.105369
0.122905
0.237039
0.393008
0.502883
0.48256
0.289991
-0.0348741
-0.3701
-0.576296
-0.565361
-0.330681
0.257068
0.54454
0.588597
0.37277
-0.00596333
-0.369057
-0.543785
-0.450621
-0.137919
0.235229
0.479522
0.47982
0.244676
-0.109261
-0.424294
-0.589753
-0.584633
-0.458605
-0.288723
-0.140014
-0.0442793
-0.00159184
0.00500084
-0.00543619
-0.0200466
-0.03331
-0.0438483
-0.0507682
-0.0520754
-0.0453615
-0.0294
-0.0052096
0.0239792
0.0535126
0.0781483
0.0924741
0.0909987
0.068438
0.0207214
-0.0532085
-0.149398
-0.257764
-0.36279
-0.446099
-0.489979
-0.480696
-0.411055
-0.282322
-0.105683
0.0969536
0.293625
0.445963
0.517077
0.48219
0.337901
0.107608
-0.157501
-0.387385
-0.516622
-0.508866
-0.364607
-0.120107
0.153387
0.370114
0.469506
0.434492
0.283323
0.0624527
-0.166521
-0.352924
-0.467266
-0.490877
-0.413608
-0.244248
-0.0145809
0.227172
0.425859
0.531665
0.514938
0.376016
0.145834
-0.120768
-0.358685
-0.51144
-0.546878
-0.462616
-0.283068
-0.05177
0.181256
0.375264
0.509963
0.585656
0.613922
0.605965
0.565512
0.48968
0.376531
0.233393
0.0785552
-0.0661258
-0.185916
-0.27881
-0.353209
-0.420719
-0.488333
-0.553064
-0.601157
-0.612614
-0.570163
-0.470578
-0.333532
-0.199413
-0.111409
-0.0902119
-0.116557
-0.132651
-0.0692125
0.106477
0.353913
0.573895
0.661821
0.550596
0.241989
-0.164793
-0.502568
-0.62965
-0.494643
-0.149938
0.431487
0.591497
0.483478
0.153924
-0.245743
-0.525241
-0.553672
-0.318925
0.0641974
0.401233
0.523609
0.376495
0.0379644
-0.323313
-0.543923
-0.551375
-0.376977
-0.115715
0.13041
0.299141
0.380562
0.39919
0.388829
0.375267
0.369962
0.372682
0.378484
0.383807
0.388712
0.395605
0.406725
0.422467
0.441261
0.460443
0.477102
0.4882
0.490007
0.477514
0.4446
0.385359
0.296283
0.178425
0.0384754
-0.111677
-0.256359
-0.377503
-0.455736
-0.472201
-0.412299
-0.271526
-0.0622565
0.181168
0.40416
0.544592
0.55236
0.406876
0.131141
-0.200226
-0.478027
-0.603432
-0.525519
-0.258113
0.108273
0.428288
0.575337
0.497941
0.226944
-0.133492
-0.447955
-0.6205
-0.620918
-0.464421
-0.199666
0.0984452
0.354101
0.5139
0.550639
0.461434
0.26887
0.017895
-0.234425
-0.431764
-0.531039
-0.512274
-0.382593
-0.17353
0.0670351
0.287756
0.449232
0.53554
0.555824
0.535794
0.504327
0.481571
0.473062
0.471286
0.462983
0.437983
0.394367
0.337046
0.271694
0.199224
0.114771
0.0117492
-0.111327
-0.245248
-0.369994
-0.461535
-0.502659
-0.492945
-0.452879
-0.416897
-0.414367
-0.447833
-0.482602
-0.455902
-0.308226
-0.0316316
0.298478
0.553547
0.623447
0.463714
0.118236
-0.273699
-0.535091
-0.549523
-0.311036
0.075555
0.525922
0.525356
0.281716
-0.100395
-0.443098
-0.584204
-0.456408
-0.116382
0.271187
0.512357
0.490105
0.219769
-0.158956
-0.454007
-0.530511
-0.371723
-0.0649901
0.256719
0.488436
0.595647
0.603834
0.563493
0.520503
0.500617
0.507505
0.530585
0.556101
0.575104
0.585513
0.589698
0.590915
0.591148
0.590998
0.590735
0.591164
0.593443
0.597888
0.60254
0.602468
0.59033
0.55798
0.498335
0.406687
0.281386
0.124722
-0.0548946
-0.239699
-0.400857
-0.501741
-0.507152
-0.396013
-0.174573
0.113559
0.390024
0.564611
0.568221
0.380238
0.0489834
-0.307587
-0.546297
-0.564462
-0.342083
0.03625
0.398728
0.574665
0.482075
0.155208
-0.264273
-0.593865
-0.71269
-0.596419
-0.294718
0.0858718
0.416779
0.604693
0.616209
0.465954
0.204531
-0.0932357
-0.351213
-0.513263
-0.550993
-0.463989
-0.278198
-0.0398783
0.196075
0.379935
0.479158
0.485781
0.416792
0.306797
0.195705
0.116654
0.0886776
0.11513
0.186105
0.283029
0.384497
0.472058
0.533776
0.564062
0.560651
0.521662
0.44559
0.334921
0.20061
0.0624993
-0.0572633
-0.145146
-0.204799
-0.256907
-0.32747
-0.428415
-0.542327
-0.622395
-0.608359
-0.455502
-0.17421
0.146727
0.375842
0.414077
0.243603
-0.0598679
-0.347816
-0.471104
-0.36086
-0.0602588
0.292151
0.514763
0.35611
0.026417
-0.330519
-0.549264
-0.525676
-0.263549
0.120298
0.441181
0.542677
0.377045
0.0281027
-0.323969
-0.500013
-0.419948
-0.131387
0.22733
0.508832
0.635396
0.616326
0.513208
0.396634
0.316333
0.289821
0.307544
0.346874
0.386176
0.41294
0.424463
0.423793
0.415149
0.401547
0.384971
0.367778
0.353709
0.34757
0.353669
0.373922
0.406667
0.44673
0.486421
0.516477
0.526146
0.502739
0.43232
0.303633
0.115873
-0.112399
-0.339394
-0.507318
-0.559985
-0.463526
-0.224945
0.0959093
0.394963
0.561399
0.524051
0.284964
-0.0658552
-0.375969
-0.502439
-0.382157
-0.0686894
0.277642
0.472015
0.408303
0.109288
-0.279091
-0.564087
-0.617537
-0.421022
-0.0531708
0.338987
0.606392
0.66715
0.518566
0.21854
-0.132662
-0.426524
-0.587127
-0.586717
-0.43942
-0.192625
0.0851224
0.324365
0.473741
0.509042
0.434269
0.277891
0.0835378
-0.103738
-0.249594
-0.335238
-0.35499
-0.311302
-0.211862
-0.0696489
0.0966597
0.264919
0.414452
0.530654
0.606287
0.639618
0.632254
0.589158
0.520235
0.439987
0.362437
0.292922
0.222505
0.13095
6.75221e-05
-0.168394
-0.343167
-0.471732
-0.501994
-0.40778
-0.213441
-0.000550281
0.128198
0.109742
-0.0424042
-0.240818
-0.363599
-0.320178
-0.10413
0.198258
0.446282
0.392516
0.113524
-0.228542
-0.484369
-0.53682
-0.354671
-0.0105103
0.340611
0.532814
0.474169
0.191129
-0.176617
-0.441097
-0.469852
-0.252767
0.0995004
0.418647
0.576431
0.543502
0.376045
0.166295
-0.00623729
-0.102516
-0.124249
-0.0974044
-0.0534082
-0.0158433
0.00469893
0.00837178
0.000207288
-0.0149373
-0.0342899
-0.0562842
-0.0786659
-0.0972871
-0.106372
-0.1
-0.0738704
-0.0263413
0.0416942
0.127599
0.227127
0.332703
0.430163
0.496508
0.502355
0.421041
0.242758
-0.011596
-0.285576
-0.499645
-0.578719
-0.481498
-0.222762
0.116941
0.411302
0.54201
0.45396
0.184483
-0.142307
-0.369338
-0.389026
-0.202407
0.0760766
0.280704
0.292388
0.105372
-0.168055
-0.363214
-0.362924
-0.153615
0.17536
0.474292
0.611625
0.532803
0.266024
-0.0945376
-0.421943
-0.610525
-0.612958
-0.440841
-0.15244
0.163842
0.418707
0.551433
0.541162
0.403382
0.181542
-0.0667162
-0.288834
-0.453126
-0.552277
-0.59527
-0.5952
-0.560419
-0.492604
-0.390959
-0.258491
-0.105596
0.0515796
0.19646
0.317065
0.408004
0.469804
0.507436
0.528754
0.541865
0.55078
0.550989
0.528394
0.464507
0.348086
0.188247
0.0186028
-0.115059
-0.17766
-0.164673
-0.109394
-0.0697606
-0.0940351
-0.187216
-0.303036
-0.364175
-0.303047
-0.106424
0.165852
0.403802
0.498282
0.180023
-0.155055
-0.431164
-0.53048
-0.406018
-0.103363
0.249404
0.494259
0.518552
0.307357
-0.0435681
-0.363491
-0.493631
-0.371098
-0.0593708
0.282659
0.489532
0.480268
0.283765
0.00176431
-0.254935
-0.419832
-0.484252
-0.477431
-0.439621
-0.403342
-0.385146
-0.38643
-0.400035
-0.41776
-0.4348
-0.450145
-0.464526
-0.478046
-0.488906
-0.493562
-0.487858
-0.468263
-0.432281
-0.377606
-0.300581
-0.195691
-0.0582019
0.109314
0.289063
0.444602
0.52758
0.4946
0.328036
0.0534174
-0.255896
-0.497896
-0.58154
-0.464818
-0.177934
0.174034
0.447491
0.529398
0.391516
0.103593
-0.19467
-0.363262
-0.339178
-0.167174
0.0347298
0.15049
0.134291
0.033537
-0.047785
-0.0231473
0.119604
0.311063
0.441621
0.425235
0.241746
-0.0562376
-0.362659
-0.563796
-0.588775
-0.43032
-0.139399
0.191137
0.458482
0.588474
0.555438
0.380039
0.118423
-0.155703
-0.377134
-0.511447
-0.560662
-0.552565
-0.522763
-0.49868
-0.49113
-0.4945
-0.493292
-0.471461
-0.420394
-0.341991
-0.246076
-0.144638
-0.0465065
0.0453409
0.133417
0.222688
0.315715
0.40805
0.486904
0.534843
0.537448
0.491942
0.41237
0.325717
0.257234
0.21279
0.170774
0.0925485
-0.0475706
-0.23157
-0.397369
-0.469516
-0.394398
-0.171515
0.129641
0.393787
0.513939
0.4356
-0.0779228
-0.39704
-0.546432
-0.465493
-0.185952
0.174889
0.460749
0.547674
0.395735
0.0685145
-0.284446
-0.49609
-0.466551
-0.211504
0.139888
0.407869
0.462724
0.288242
-0.0246767
-0.338691
-0.549851
-0.629903
-0.611804
-0.551572
-0.497334
-0.474372
-0.484489
-0.514683
-0.548624
-0.57501
-0.590082
-0.595591
-0.595339
-0.592562
-0.588871
-0.584453
-0.578968
-0.572388
-0.564904
-0.555179
-0.537229
-0.497822
-0.417532
-0.277991
-0.0748956
0.168585
0.398106
0.542345
0.54071
0.371057
0.0691346
-0.269104
-0.517992
-0.576862
-0.41391
-0.0855989
0.273314
0.50792
0.521923
0.318424
-0.00479291
-0.298117
-0.438427
-0.391734
-0.212328
0.00306922
0.169175
0.253092
0.279441
0.29203
0.307726
0.303797
0.240735
0.0950131
-0.118666
-0.342866
-0.496506
-0.512814
-0.371015
-0.105364
0.204494
0.460153
0.582217
0.537551
0.344664
0.0649476
-0.216931
-0.42336
-0.511682
-0.484441
-0.380508
-0.254837
-0.156678
-0.115624
-0.138608
-0.213798
-0.317013
-0.419719
-0.497937
-0.538855
-0.541932
-0.514607
-0.465763
-0.400527
-0.318716
-0.217678
-0.0981809
0.0304788
0.15091
0.245126
0.304972
0.338433
0.366157
0.407008
0.45945
0.492292
0.453357
0.296596
0.0246081
-0.282795
-0.500256
-0.527846
-0.339061
-0.000802188
0.342923
0.543311
0.518228
0.277808
-0.32656
-0.571758
-0.56509
-0.313396
0.0730139
0.422302
0.584573
0.494281
0.189889
-0.193886
-0.481717
-0.544217
-0.35529
-0.00674267
0.326067
0.476016
0.373258
0.0738097
-0.276145
-0.52829
-0.613475
-0.554429
-0.425159
-0.302011
-0.231655
-0.223365
-0.259407
-0.312031
-0.358025
-0.385769
-0.394377
-0.388785
-0.375167
-0.35865
-0.34294
-0.330854
-0.325235
-0.329884
-0.349695
-0.38871
-0.44544
-0.506911
-0.54553
-0.523566
-0.407182
-0.18703
0.103231
0.385413
0.562785
0.561093
0.362002
0.0223264
-0.331727
-0.554574
-0.550115
-0.313419
0.0592972
0.402135
0.562102
0.473413
0.178576
-0.188575
-0.464373
-0.541715
-0.408387
-0.130383
0.180301
0.41503
0.518642
0.491998
0.360971
0.161004
-0.0649493
-0.275106
-0.432909
-0.502329
-0.454041
-0.284462
-0.0275713
0.250412
0.469563
0.562343
0.497507
0.291631
0.00576325
-0.272948
-0.461812
-0.511855
-0.421636
-0.232848
-0.011101
0.180765
0.302678
0.340739
0.299026
0.191478
0.0388214
-0.13292
-0.296928
-0.432521
-0.529887
-0.589352
-0.616221
-0.614894
-0.585927
-0.52792
-0.443161
-0.34255
-0.244011
-0.162541
-0.0976483
-0.0283607
0.0766913
0.234477
0.421277
0.568396
0.589407
0.424697
0.0927912
-0.281491
-0.522314
-0.508951
-0.238339
0.164317
0.499184
0.605833
0.437279
0.0696242
-0.518667
-0.65971
-0.500675
-0.11556
0.315991
0.595674
0.607669
0.353296
-0.05328
-0.425232
-0.595933
-0.495293
-0.172994
0.214639
0.475726
0.485881
0.24682
-0.116735
-0.423988
-0.545309
-0.463246
-0.253916
-0.0270736
0.133917
0.200169
0.188351
0.136176
0.0802229
0.0427319
0.0292058
0.0343092
0.0497467
0.0689638
0.0879307
0.104115
0.1154
0.119088
0.110464
0.0813402
0.0204983
-0.0816439
-0.22373
-0.383326
-0.514
-0.556602
-0.463413
-0.226687
0.100551
0.410698
0.584472
0.544578
0.291009
-0.0847533
-0.424482
-0.57803
-0.475448
-0.1571
0.233548
0.513049
0.553695
0.337521
-0.038643
-0.400581
-0.586519
-0.522862
-0.238407
0.148084
0.474761
0.620779
0.549334
0.295306
-0.0495774
-0.366631
-0.565129
-0.606914
-0.492488
-0.253549
0.0463916
0.327701
0.518861
0.571577
0.469988
0.238859
-0.0572083
-0.331342
-0.503312
-0.52541
-0.395811
-0.157835
0.116598
0.35689
0.5208
0.600923
0.611276
0.569301
0.486367
0.369109
0.22567
0.0692889
-0.0840179
-0.220981
-0.334635
-0.423287
-0.48656
-0.522592
-0.529482
-0.510457
-0.477902
-0.450019
-0.438407
-0.433631
-0.400723
-0.29273
-0.0822297
0.201476
0.46168
0.574782
0.457942
0.130717
-0.258409
-0.500618
-0.457614
-0.141058
0.283058
0.581312
0.594485
0.310479
-0.134796
-0.622549
-0.657931
-0.377922
0.0838847
0.499393
0.673468
0.537559
0.158756
-0.284319
-0.583245
-0.608862
-0.357807
0.0498942
0.415314
0.563644
0.431994
0.0938611
-0.271917
-0.479027
-0.440211
-0.197883
0.119668
0.380889
0.519287
0.542055
0.497046
0.43747
0.399381
0.39365
0.411538
0.437548
0.460087
0.474721
0.481879
0.483672
0.48235
0.479619
0.474808
0.461373
0.423986
0.340302
0.190664
-0.0250365
-0.271547
-0.478184
-0.562846
-0.469777
-0.203911
0.152217
0.460647
0.59079
0.479767
0.163133
-0.225317
-0.508201
-0.555784
-0.34504
0.0282635
0.384785
0.553135
0.455174
0.135853
-0.252234
-0.52181
-0.548195
-0.317919
0.065974
0.421897
0.586325
0.490428
0.17294
-0.23344
-0.560255
-0.693002
-0.603617
-0.331074
0.0328934
0.369569
0.581689
0.62133
0.487112
0.219737
-0.102432
-0.384764
-0.547907
-0.549677
-0.39375
-0.12943
0.16297
0.404159
0.548868
0.597868
0.58472
0.550387
0.522022
0.505014
0.488029
0.455019
0.396352
0.31302
0.213365
0.107189
0.00264442
-0.0929714
-0.171962
-0.22864
-0.265418
-0.297006
-0.345458
-0.424257
-0.519809
-0.58506
-0.554605
-0.379641
-0.0738332
0.259615
0.465443
0.427269
0.148362
-0.221298
-0.458079
-0.40855
-0.0856308
0.327886
0.585278
0.531606
0.181177
-0.286811
-0.618781
-0.56993
-0.222504
0.247606
0.594582
0.648785
0.390996
-0.0530652
-0.463901
-0.645572
-0.522407
-0.156887
0.273731
0.559613
0.5706
0.311267
-0.081222
-0.397854
-0.476485
-0.287525
0.0644051
0.409888
0.621008
0.670208
0.608328
0.512876
0.446937
0.43779
0.476566
0.534451
0.583542
0.609596
0.612288
0.598519
0.576574
0.554495
0.540657
0.542479
0.561065
0.583866
0.581125
0.51218
0.344156
0.0787221
-0.228148
-0.475857
-0.562733
-0.436693
-0.128998
0.241491
0.514252
0.566283
0.368487
0.00354452
-0.359821
-0.550126
-0.480464
-0.184424
0.19503
0.471755
0.514771
0.308208
-0.0435082
-0.36255
-0.490949
-0.368617
-0.0605332
0.268261
0.440676
0.362812
0.0645764
-0.310991
-0.582155
-0.630349
-0.43899
-0.0808504
0.307335
0.583545
0.664021
0.537366
0.250529
-0.103403
-0.412141
-0.585517
-0.580829
-0.406841
-0.121027
0.184396
0.416478
0.519675
0.494113
0.387228
0.266493
0.1886
0.180932
0.23944
0.337136
0.438018
0.512003
0.544062
0.533663
0.488305
0.418277
0.335716
0.254809
0.187828
0.136243
0.0836756
8.99404e-05
-0.139306
-0.328171
-0.514066
-0.611563
-0.542891
-0.291263
0.05696
0.332079
0.381276
0.174262
-0.159697
-0.399382
-0.377412
-0.0911762
0.286745
0.514449
0.439333
0.0861294
-0.350218
-0.49919
-0.404761
-0.0604928
0.345024
0.582546
0.521589
0.18869
-0.248754
-0.565373
-0.605468
-0.352261
0.0725818
0.459459
0.621905
0.489493
0.131711
-0.266223
-0.495613
-0.442521
-0.141334
0.248712
0.540348
0.633469
0.547925
0.376923
0.223253
0.151767
0.172472
0.252574
0.343494
0.407402
0.430192
0.417635
0.383426
0.340405
0.299508
0.273322
0.277507
0.325283
0.415634
0.521882
0.590689
0.558597
0.383912
0.0820767
-0.25849
-0.50628
-0.552071
-0.364209
-0.012547
0.348727
0.553316
0.506672
0.226986
-0.157267
-0.462475
-0.546164
-0.373699
-0.0295097
0.318418
0.50357
0.446427
0.186293
-0.140025
-0.366964
-0.388428
-0.212129
0.0451242
0.223769
0.214816
0.0208995
-0.243134
-0.418225
-0.396282
-0.169651
0.171167
0.478867
0.625094
0.556116
0.297468
-0.0613873
-0.395937
-0.596409
-0.606488
-0.430692
-0.129023
0.196861
0.438673
0.524206
0.441583
0.238826
0.000751334
-0.189913
-0.283253
-0.267415
-0.158326
0.0108568
0.199277
0.369954
0.499188
0.577977
0.60729
0.594093
0.551519
0.49952
0.459296
0.440006
0.426082
0.377656
0.249971
0.0264548
-0.250932
-0.481489
-0.551475
-0.402999
-0.0896152
0.224227
0.356088
0.230961
-0.061892
-0.319683
-0.362366
-0.155338
0.164961
0.379593
0.336517
0.0495413
-0.304706
-0.278919
-0.188591
0.0759922
0.350993
0.454659
0.303881
-0.0387234
-0.394586
-0.570085
-0.466633
-0.125086
0.290643
0.574048
0.588617
0.327624
-0.0828358
-0.43452
-0.550337
-0.378326
-0.013739
0.347687
0.527692
0.468851
0.240109
-0.0265544
-0.215395
-0.27705
-0.228562
-0.124874
-0.025855
0.0302565
0.0367982
0.00905408
-0.0336646
-0.07946
-0.12281
-0.155551
-0.159531
-0.108946
0.0156623
0.206697
0.414493
0.554807
0.543968
0.345703
0.00732372
-0.341646
-0.548216
-0.515642
-0.249934
0.133918
0.456714
0.567452
0.41562
0.0700264
-0.306095
-0.534062
-0.511922
-0.254774
0.114563
0.419994
0.523908
0.39271
0.102244
-0.201051
-0.374685
-0.357764
-0.197831
-0.0124384
0.0856985
0.056167
-0.0468563
-0.115409
-0.0646569
0.111325
0.334231
0.486122
0.477029
0.287804
-0.0249424
-0.35014
-0.569091
-0.605813
-0.448655
-0.148753
0.192808
0.458748
0.561253
0.471179
0.224765
-0.0894637
-0.370083
-0.549569
-0.610836
-0.570398
-0.456114
-0.296417
-0.117488
0.0584918
0.214453
0.337408
0.417437
0.450471
0.444711
0.424344
0.422328
0.460768
0.529441
0.579569
0.542527
0.368177
0.0692108
-0.255336
-0.457045
-0.427478
-0.176163
0.15275
0.35846
0.318749
0.0704773
-0.215762
-0.350849
-0.25637
-0.0123999
0.202573
0.238452
0.0772679
-0.155104
-0.00874376
0.0283968
0.151303
0.254617
0.226529
0.0340861
-0.243738
-0.455189
-0.467426
-0.246064
0.119888
0.455073
0.591935
0.457861
0.107083
-0.294831
-0.549841
-0.536253
-0.266872
0.113208
0.396763
0.438768
0.234062
-0.09926
-0.402631
-0.571638
-0.592058
-0.513031
-0.405688
-0.329558
-0.309957
-0.335238
-0.37554
-0.407752
-0.42846
-0.448652
-0.47657
-0.501418
-0.489486
-0.397073
-0.197438
0.0875573
0.373561
0.542686
0.504694
0.250939
-0.122986
-0.449189
-0.574445
-0.43688
-0.0930231
0.298218
0.550356
0.547018
0.289482
-0.104591
-0.448081
-0.581002
-0.446558
-0.107322
0.27815
0.529861
0.541492
0.320746
-0.0234376
-0.32885
-0.466631
-0.407829
-0.217418
-0.00342811
0.144603
0.204146
0.218452
0.244322
0.298324
0.343158
0.316881
0.17895
-0.0578629
-0.324264
-0.52208
-0.569894
-0.437827
-0.158778
0.178862
0.46068
0.591352
0.527812
0.290747
-0.0393495
-0.352334
-0.562671
-0.64597
-0.630374
-0.563126
-0.482781
-0.407266
-0.334677
-0.25337
-0.156624
-0.0528434
0.0358595
0.0868811
0.0953964
0.0854852
0.102943
0.188957
0.347041
0.524462
0.627497
0.568039
0.319852
-0.0380519
-0.336588
-0.415851
-0.233579
0.0971594
0.368776
0.416011
0.219301
-0.0925683
-0.328276
-0.361506
-0.205224
0.014858
0.155052
0.152279
0.0592565
0.239085
0.189496
0.143535
0.0741815
-0.0507907
-0.221817
-0.370741
-0.403936
-0.264793
0.0188696
0.332384
0.526805
0.498454
0.2425
-0.135838
-0.460991
-0.57788
-0.43158
-0.0946573
0.25643
0.431939
0.339565
0.0311128
-0.334838
-0.596935
-0.685177
-0.628925
-0.508395
-0.406197
-0.373113
-0.410831
-0.479868
-0.530509
-0.536175
-0.507458
-0.480984
-0.491852
-0.546157
-0.609202
-0.615736
-0.499899
-0.237878
0.114164
0.42499
0.554665
0.433243
0.102744
-0.287274
-0.549027
-0.556775
-0.301718
0.102268
0.462272
0.607314
0.470618
0.110989
-0.304196
-0.575984
-0.579248
-0.311886
0.104811
0.471562
0.618046
0.485292
0.138064
-0.258727
-0.520925
-0.549058
-0.358775
-0.0512135
0.238772
0.415665
0.464109
0.420588
0.323958
0.192077
0.0268012
-0.166132
-0.357882
-0.494344
-0.516862
-0.392996
-0.138935
0.176675
0.453476
0.598935
0.56282
0.353297
0.0393773
-0.268645
-0.469329
-0.520872
-0.452655
-0.336081
-0.243234
-0.218186
-0.264918
-0.348693
-0.415821
-0.427161
-0.381571
-0.313405
-0.268302
-0.270856
-0.302796
-0.307441
-0.22038
-0.0127312
0.272358
0.520489
0.601554
0.446473
0.10535
-0.248441
-0.413688
-0.296002
0.029605
0.359719
0.493965
0.358947
0.0375054
-0.285819
-0.44105
-0.373629
-0.152954
0.0886934
0.240726
0.275409
0.409838
0.263609
0.0613458
-0.142029
-0.305891
-0.397018
-0.381891
-0.241383
0.00190939
0.272505
0.462959
0.481311
0.299106
-0.0242298
-0.354733
-0.543
-0.498722
-0.23506
0.126937
0.406551
0.459572
0.25741
-0.0953337
-0.418901
-0.573778
-0.535765
-0.377824
-0.20818
-0.114732
-0.132349
-0.234754
-0.352072
-0.412089
-0.383388
-0.292178
-0.204442
-0.186327
-0.266737
-0.418584
-0.562647
-0.597084
-0.448398
-0.125853
0.254813
0.52134
0.544319
0.304352
-0.0924438
-0.454054
-0.604109
-0.469183
-0.105504
0.316343
0.591624
0.59035
0.30873
-0.126311
-0.503148
-0.639343
-0.469923
-0.0695431
0.367011
0.623375
0.581266
0.26295
-0.176158
-0.517223
-0.606855
-0.423323
-0.0641488
0.301252
0.524998
0.554387
0.420839
0.193625
-0.0549751
-0.271782
-0.426735
-0.499969
-0.472104
-0.331473
-0.0919006
0.195509
0.450709
0.592804
0.570497
0.381675
0.0826613
-0.221293
-0.416985
-0.437805
-0.295573
-0.0707144
0.133079
0.235955
0.201263
0.0398509
-0.186696
-0.386819
-0.490589
-0.489451
-0.433187
-0.394153
-0.420649
-0.503622
-0.576983
-0.551541
-0.365264
-0.0351315
0.318939
0.526422
0.471187
0.170794
-0.208016
-0.437108
-0.377269
-0.0632501
0.315604
0.533542
0.469278
0.160418
-0.223783
-0.480194
-0.494087
-0.28277
0.0359139
0.310511
0.439841
0.492769
0.26003
-0.0596569
-0.338806
-0.483933
-0.45954
-0.280126
-0.00502031
0.273565
0.459468
0.482393
0.322732
0.0289018
-0.289715
-0.503595
-0.518513
-0.31724
0.0237978
0.355728
0.525523
0.453036
0.173699
-0.167305
-0.391837
-0.400122
-0.219106
0.0360035
0.238787
0.311456
0.242625
0.082135
-0.0774165
-0.144798
-0.083242
0.0676756
0.21736
0.275464
0.191854
-0.0250894
-0.299661
-0.504366
-0.517933
-0.297097
0.0792938
0.433354
0.588373
0.464118
0.110682
-0.304889
-0.578343
-0.578026
-0.299159
0.131255
0.50278
0.634482
0.461519
0.0594367
-0.374806
-0.62211
-0.561242
-0.218371
0.235214
0.562703
0.600886
0.335535
-0.0945113
-0.459662
-0.577441
-0.405434
-0.0426356
0.322578
0.520636
0.48939
0.272643
-0.0261368
-0.296096
-0.464179
-0.507466
-0.434625
-0.266428
-0.0320103
0.22523
0.446842
0.571413
0.553773
0.383009
0.0975312
-0.212543
-0.432844
-0.473732
-0.311891
-0.00747832
0.320467
0.558168
0.642612
0.557196
0.32436
0.0197202
-0.241601
-0.36989
-0.356507
-0.271347
-0.215323
-0.26068
-0.408618
-0.583696
-0.669432
-0.568075
-0.263487
0.134655
0.427729
0.453945
0.195812
-0.193799
-0.472701
-0.467227
-0.173955
0.239593
0.532713
0.543092
0.266403
-0.149347
-0.480773
-0.56406
-0.372149
-0.00778419
0.347563
0.534388
0.513328
0.21452
-0.178475
-0.48194
-0.571919
-0.425358
-0.109423
0.243178
0.492073
0.548757
0.396047
0.0901589
-0.251521
-0.49668
-0.551405
-0.389976
-0.0676567
0.289172
0.534016
0.566647
0.375036
0.050826
-0.237698
-0.335589
-0.194243
0.106763
0.418376
0.615822
0.64854
0.530499
0.325334
0.135916
0.0635264
0.14825
0.342934
0.544119
0.650702
0.599493
0.374109
0.0249388
-0.316911
-0.491329
-0.403161
-0.0842507
0.307474
0.569977
0.570269
0.300465
-0.117844
-0.4814
-0.614309
-0.452868
-0.068979
0.350378
0.595946
0.548266
0.227683
-0.206176
-0.526991
-0.571641
-0.320144
0.0929346
0.439808
0.535917
0.340236
-0.0295364
-0.357451
-0.462651
-0.302163
0.0201604
0.316271
0.428196
0.313295
0.0434732
-0.249507
-0.445845
-0.48899
-0.388821
-0.193291
0.0409704
0.264085
0.435156
0.520341
0.494033
0.345903
0.0945691
-0.199964
-0.444292
-0.545236
-0.447783
-0.163891
0.215849
0.559637
0.768758
0.808706
0.68387
0.426916
0.120831
-0.112249
-0.181846
-0.0913593
0.0661654
0.166789
0.122026
-0.0800365
-0.360744
-0.576636
-0.591329
-0.35622
0.0345178
0.368577
0.448776
0.223793
-0.173029
-0.495594
-0.544888
-0.283492
0.14748
0.502363
0.584796
0.352347
-0.0713138
-0.454243
-0.594833
-0.42908
-0.0450556
0.356398
0.57334
0.507607
0.165046
-0.26742
-0.566437
-0.592868
-0.342
0.0680502
0.444735
0.624451
0.543628
0.241522
-0.154327
-0.477697
-0.604129
-0.49243
-0.186612
0.194044
0.498927
0.613732
0.500425
0.208767
-0.127437
-0.340219
-0.316365
-0.0607509
0.304911
0.617752
0.772493
0.749473
0.582858
0.343798
0.13623
0.0601067
0.154599
0.373373
0.614156
0.775066
0.785752
0.608623
0.260959
-0.145772
-0.435142
-0.470621
-0.235776
0.150702
0.489389
0.610726
0.453963
0.0857819
-0.320121
-0.567599
-0.541548
-0.254919
0.152384
0.474538
0.552831
0.353221