# vtk DataFile Version 3.0
PFC simulation results
ASCII
DATASET STRUCTURED_POINTS
DIMENSIONS 128 128 1
ORIGIN 0 0 0
SPACING 1 1 1
POINT_DATA 16384
SCALARS psi double
LOOKUP_TABLE default
-0.499316
-0.570401
-0.397454
-0.0540927
0.311172
0.543905
0.556485
0.353941
0.0217252
-0.311572
-0.532767
-0.588603
-0.490109
-0.291313
-0.0608669
0.144986
0.297923
0.396249
0.453373
0.485969
0.50693
0.52337
0.5378
0.550357
0.56061
0.568412
0.573997
0.577753
0.580033
0.581115
0.581287
0.580968
0.580788
0.581589
0.584281
0.589507
0.59705
0.605043
0.609188
0.602368
0.57512
0.517295
0.420881
0.28339
0.110703
-0.0819537
-0.271728
-0.432215
-0.538479
-0.571723
-0.523091
-0.396345
-0.208533
0.0121881
0.231182
0.413289
0.529301
0.561485
0.505059
0.365393
0.15737
-0.0887749
-0.325745
-0.50493
-0.597462
-0.596305
-0.504452
-0.333356
-0.110868
0.122091
0.326424
0.472525
0.538008
0.50853
0.384572
0.185593
-0.052697
-0.285148
-0.466057
-0.559384
-0.547087
-0.432409
-0.238499
-0.00360308
0.227413
0.413955
0.528705
0.561609
0.519802
0.425283
0.309871
0.206954
0.142586
0.129817
0.167698
0.243833
0.339015
0.432875
0.508964
0.557413
0.574547
0.560628
0.517424
0.44659
0.349048
0.22554
0.0785847
-0.0845871
-0.249876
-0.396933
-0.502917
-0.548242
-0.524041
-0.440982
-0.333565
-0.25051
-0.231672
-0.284461
-0.37079
-0.412574
-0.32754
-0.0895415
0.232523
0.505367
0.607834
0.485247
0.171137
-0.211669
-0.561082
-0.475902
-0.180604
0.195274
0.485197
0.567607
0.414637
0.0939237
-0.261179
-0.513071
-0.581416
-0.462918
-0.215474
0.0729616
0.32261
0.490491
0.573944
0.595167
0.582826
0.559949
0.539503
0.525586
0.517136
0.511498
0.506482
0.500874
0.49409
0.485701
0.475215
0.462186
0.446501
0.428698
0.410207
0.393458
0.38177
0.378954
0.388553
0.412717
0.450848
0.498343
0.545987
0.580521
0.586684
0.550504
0.463085
0.323885
0.142495
-0.0617624
-0.262506
-0.430663
-0.539526
-0.569445
-0.511204
-0.367862
-0.155959
0.0934903
0.336849
0.52587
0.618978
0.588544
0.425873
0.153475
-0.163428
-0.433245
-0.579484
-0.566608
-0.399439
-0.12177
0.187997
0.445495
0.594651
0.614947
0.510984
0.308132
0.0512722
-0.205492
-0.413434
-0.537561
-0.559012
-0.476381
-0.306157
-0.0802509
0.159736
0.370734
0.517159
0.577537
0.546803
0.435531
0.26794
0.0779349
-0.0983714
-0.231619
-0.304764
-0.313017
-0.260737
-0.158896
-0.0237213
0.125333
0.26941
0.394396
0.492873
0.562914
0.604938
0.618624
0.601388
0.549067
0.458848
0.333523
0.184852
0.0330231
-0.0990645
-0.194706
-0.251528
-0.284771
-0.321569
-0.385536
-0.47971
-0.578435
-0.629729
-0.568576
-0.351687
-0.00864295
0.342797
0.557782
0.546225
0.308981
-0.059395
-0.399334
-0.515933
-0.286752
0.0743483
0.405543
0.560267
0.474442
0.186526
-0.179654
-0.470468
-0.576167
-0.470252
-0.204654
0.119219
0.39675
0.564291
0.612861
0.57209
0.485377
0.390488
0.309996
0.251073
0.210923
0.183166
0.162107
0.14424
0.127857
0.112036
0.0959101
0.0784909
0.0588969
0.036737
0.0124507
-0.0124632
-0.0353382
-0.0523563
-0.0587317
-0.0491414
-0.0185083
0.0367861
0.117312
0.218945
0.331812
0.440573
0.526429
0.570515
0.55773
0.480056
0.338906
0.146466
-0.0741844
-0.291025
-0.46787
-0.571167
-0.576444
-0.473356
-0.271025
-0.00345568
0.271813
0.487471
0.58557
0.532244
0.332197
0.0437262
-0.23028
-0.387115
-0.368921
-0.179529
0.115898
0.411238
0.606813
0.648532
0.530924
0.286583
-0.020219
-0.309815
-0.515163
-0.599578
-0.556292
-0.402585
-0.175019
0.0783626
0.309378
0.479401
0.564405
0.556236
0.461431
0.298537
0.0948496
-0.117738
-0.308802
-0.456389
-0.551112
-0.594533
-0.593423
-0.554477
-0.482757
-0.383446
-0.263905
-0.133493
-0.00121912
0.126555
0.246363
0.355738
0.450774
0.525008
0.570504
0.580836
0.554681
0.498179
0.423929
0.345597
0.269682
0.188908
0.0833577
-0.0662598
-0.258022
-0.45744
-0.606889
-0.645464
-0.527973
-0.253654
0.100477
0.39331
0.496779
0.36607
0.0580942
-0.288893
-0.515076
-0.3698
-0.038475
0.316306
0.535831
0.524163
0.285659
-0.0772022
-0.406391
-0.565578
-0.498991
-0.242116
0.0999498
0.400642
0.570357
0.585557
0.478187
0.307157
0.129856
-0.0168558
-0.121023
-0.188278
-0.231067
-0.260707
-0.284151
-0.304342
-0.322081
-0.337716
-0.351924
-0.365694
-0.37995
-0.395214
-0.411431
-0.427937
-0.443432
-0.455866
-0.462248
-0.458424
-0.439043
-0.397926
-0.329125
-0.228746
-0.097257
0.0584424
0.224216
0.379885
0.502348
0.569694
0.56516
0.480515
0.319276
0.0996992
-0.144498
-0.368585
-0.526486
-0.581647
-0.516029
-0.33793
-0.0868524
0.1723
0.368303
0.446464
0.387821
0.22378
0.0338152
-0.0877462
-0.0782885
0.0638567
0.277602
0.466576
0.545661
0.473953
0.260895
-0.0382694
-0.336779
-0.548859
-0.621748
-0.5448
-0.343204
-0.0697233
0.208765
0.4314
0.55883
0.576782
0.492484
0.329505
0.121406
-0.0957887
-0.290411
-0.440139
-0.535292
-0.579713
-0.587764
-0.577677
-0.564178
-0.553885
-0.545128
-0.531216
-0.504725
-0.460464
-0.396223
-0.312061
-0.209652
-0.0925653
0.032993
0.158297
0.273892
0.372444
0.450943
0.510664
0.554446
0.582141
0.585945
0.548095
0.445315
0.264434
0.0241451
-0.217302
-0.382975
-0.410945
-0.279548
-0.0270733
0.241795
0.395224
0.348049
0.111251
-0.210381
-0.466431
-0.533186
-0.149231
0.219425
0.496891
0.561748
0.384603
0.0395279
-0.322035
-0.543059
-0.535563
-0.309406
0.0381109
0.365304
0.554091
0.557655
0.401972
0.159004
-0.090186
-0.2887
-0.41727
-0.48593
-0.516937
-0.530971
-0.54073
-0.55084
-0.561044
-0.569678
-0.575725
-0.579248
-0.580914
-0.581422
-0.581276
-0.580899
-0.58088
-0.582068
-0.585367
-0.591187
-0.59866
-0.604799
-0.60393
-0.587743
-0.546318
-0.47023
-0.353521
-0.196877
-0.00999188
0.188005
0.370752
0.509154
0.576898
0.555794
0.440802
0.244626
-0.000296032
-0.246083
-0.440546
-0.540809
-0.524773
-0.398562
-0.197345
0.0238884
0.207307
0.310655
0.323605
0.27514
0.219563
0.203812
0.23932
0.29698
0.324917
0.276043
0.130691
-0.0912345
-0.331163
-0.512434
-0.573361
-0.489764
-0.278867
0.00631251
0.291094
0.503919
0.599081
0.564121
0.415697
0.192432
-0.0551578
-0.278301
-0.441622
-0.528047
-0.53846
-0.489118
-0.406927
-0.32206
-0.259951
-0.235828
-0.253188
-0.305291
-0.378285
-0.455095
-0.519426
-0.558891
-0.56644
-0.54017
-0.482368
-0.398407
-0.295286
-0.179519
-0.0550135
0.0773509
0.217071
0.359163
0.490264
0.588573
0.627881
0.585503
0.455905
0.266518
0.0793471
-0.0338459
-0.0278059
0.0918195
0.261755
0.378379
0.347685
0.144991
-0.160104
-0.435267
-0.552511
-0.447227
0.102067
0.435133
0.581873
0.47935
0.168802
-0.2148
-0.501037
-0.568703
-0.394333
-0.055327
0.3019
0.531874
0.55683
0.385883
0.096247
-0.206797
-0.439206
-0.567812
-0.605402
-0.587259
-0.54906
-0.51434
-0.491976
-0.480453
-0.474219
-0.46841
-0.460633
-0.450513
-0.438479
-0.424926
-0.410142
-0.394748
-0.380222
-0.369123
-0.364868
-0.371062
-0.390487
-0.423895
-0.468787
-0.518508
-0.562064
-0.585098
-0.572187
-0.510256
-0.392548
-0.22231
-0.0150219
0.20219
0.394736
0.527525
0.57265
0.516093
0.36268
0.138091
-0.114159
-0.341614
-0.495649
-0.544081
-0.478943
-0.3167
-0.0938652
0.13821
0.324789
0.4292
0.446884
0.395742
0.297996
0.173132
0.0356606
-0.108504
-0.255922
-0.390144
-0.476691
-0.477711
-0.372769
-0.170776
0.0884131
0.34197
0.523535
0.586272
0.515613
0.329538
0.0728146
-0.194279
-0.413565
-0.545168
-0.573772
-0.506398
-0.36764
-0.193535
-0.0225559
0.114111
0.198066
0.223176
0.191905
0.112276
-0.00326214
-0.138489
-0.275403
-0.397676
-0.493883
-0.558772
-0.592281
-0.597193
-0.576435
-0.530728
-0.457416
-0.351757
-0.211526
-0.0435919
0.131993
0.285023
0.385122
0.414139
0.37699
0.306374
0.252755
0.2583
0.331081
0.435851
0.502364
0.452117
0.245495
-0.0749547
-0.390835
-0.569707
-0.529497
-0.272938
0.333667
0.567537
0.557076
0.30528
-0.080499
-0.427575
-0.583104
-0.483859
-0.175201
0.206206
0.493952
0.574124
0.426946
0.121139
-0.220857
-0.482739
-0.605935
-0.597302
-0.503737
-0.381103
-0.271369
-0.193245
-0.145731
-0.118096
-0.0990608
-0.0815402
-0.0630279
-0.0436306
-0.0239622
-0.0041302
0.0160954
0.0365144
0.0557797
0.0710984
0.078392
0.0727804
0.0492693
0.00364681
-0.0663194
-0.159377
-0.269261
-0.383797
-0.485397
-0.553402
-0.567996
-0.514871
-0.389772
-0.202012
0.0242776
0.252708
0.441446
0.552479
0.560181
0.457061
0.256786
-0.00484973
-0.272858
-0.483891
-0.583552
-0.540638
-0.35481
-0.065741
0.243433
0.473552
0.555843
0.472975
0.255152
-0.0265426
-0.285998
-0.464845
-0.545349
-0.529249
-0.423568
-0.244409
-0.0201231
0.211729
0.407783
0.525034
0.532786
0.423755
0.21781
-0.04123
-0.295163
-0.487492
-0.579675
-0.558754
-0.435737
-0.240275
-0.0135803
0.202051
0.374985
0.490861
0.550516
0.562271
0.534558
0.472865
0.381122
0.264851
0.132861
-0.0039701
-0.135781
-0.256264
-0.362918
-0.454988
-0.530455
-0.583818
-0.606001
-0.587006
-0.521079
-0.412856
-0.280613
-0.15207
-0.0523012
0.0104152
0.0524852
0.109143
0.212069
0.362108
0.520162
0.622431
0.602959
0.419633
0.0925479
-0.274951
-0.538752
-0.590482
-0.40302
-0.0448792
0.500371
0.593057
0.428294
0.073702
-0.313625
-0.558714
-0.555669
-0.307617
0.0756904
0.421607
0.580917
0.494779
0.207147
-0.158372
-0.456745
-0.593169
-0.553891
-0.38863
-0.174235
0.021495
0.16273
0.246823
0.290468
0.314083
0.332206
0.351038
0.37079
0.389516
0.405909
0.420154
0.433315
0.446251
0.458825
0.469646
0.476172
0.474859
0.461197
0.429721
0.374389
0.289712
0.172835
0.0262303
-0.139966
-0.307321
-0.451138
-0.54499
-0.566432
-0.502395
-0.353582
-0.137448
0.11155
0.346479
0.517565
0.583648
0.521348
0.332092
0.0495862
-0.257556
-0.500358
-0.599086
-0.509755
-0.244734
0.110599
0.417704
0.552117
0.459087
0.169905
-0.203254
-0.516746
-0.674111
-0.652477
-0.476749
-0.201771
0.0976044
0.350819
0.511741
0.558432
0.487965
0.317144
0.0818588
-0.169665
-0.386398
-0.524708
-0.558097
-0.482746
-0.316729
-0.0947419
0.13988
0.345895
0.495534
0.581237
0.613908
0.614165
0.601708
0.587868
0.573774
0.55346
0.519221
0.466032
0.393081
0.302459
0.196848
0.0783771
-0.0503291
-0.183688
-0.311457
-0.419802
-0.495411
-0.530967
-0.529351
-0.503696
-0.471288
-0.442441
-0.40971
-0.344953
-0.211905
0.00403533
0.267129
0.496004
0.602768
0.529851
0.274095
-0.090111
-0.421247
-0.579383
-0.49548
-0.197625
0.191522
0.569594
0.506154
0.219
-0.169812
-0.48451
-0.583744
-0.424037
-0.0741671
0.308257
0.550643
0.551432
0.316537
-0.0490224
-0.386693
-0.563905
-0.532147
-0.328776
-0.0443854
0.223949
0.415054
0.51733
0.553346
0.556003
0.551526
0.552874
0.561389
0.572501
0.581298
0.585506
0.585687
0.583923
0.582375
0.582505
0.584998
0.589939
0.596772
0.603769
0.607152
0.600338
0.573951
0.517144
0.420424
0.279541
0.0994024
-0.103648
-0.302766
-0.465216
-0.559247
-0.561002
-0.460241
-0.265287
-0.00674423
0.26347
0.481722
0.588934
0.546652
0.350877
0.0452904
-0.277386
-0.503066
-0.542337
-0.369243
-0.0467001
0.281405
0.457426
0.391689
0.1042
-0.276924
-0.579455
-0.685095
-0.567455
-0.273548
0.0953386
0.418144
0.606947
0.629634
0.497722
0.254337
-0.0346187
-0.299299
-0.485582
-0.562607
-0.522562
-0.379769
-0.167476
0.0700123
0.287575
0.4489
0.534094
0.543701
0.497099
0.424998
0.358813
0.321359
0.322139
0.357672
0.415306
0.478494
0.531691
0.563408
0.566814
0.538599
0.477746
0.385655
0.267649
0.13412
-0.000988353
-0.124906
-0.231608
-0.324224
-0.41145
-0.498612
-0.578069
-0.624782
-0.600472
-0.469516
-0.228667
0.0658867
0.310171
0.405564
0.307605
0.0482348
-0.263883
-0.483807
-0.503037
-0.300216
0.047373
0.388808
0.524741
0.319254
-0.032271
-0.377069
-0.559338
-0.496055
-0.210713
0.172051
0.477957
0.570875
0.413376
0.0766439
-0.288175
-0.522153
-0.536453
-0.340421
-0.0230108
0.294452
0.518558
0.618802
0.61875
0.565607
0.503193
0.457417
0.434431
0.427355
0.425421
0.42064
0.410151
0.395205
0.37888
0.364276
0.353862
0.34974
0.354138
0.369475
0.397669
0.43872
0.489013
0.54002
0.578201
0.586677
0.548682
0.452269
0.295277
0.0891984
-0.139777
-0.354019
-0.511777
-0.576277
-0.524265
-0.353877
-0.0920458
0.203051
0.45241
0.579677
0.536836
0.324924
0.00761627
-0.298267
-0.468725
-0.431766
-0.207599
0.0878629
0.295257
0.299409
0.093284
-0.213234
-0.454085
-0.504644
-0.334467
-0.00598536
0.351901
0.6038
0.670259
0.541701
0.26367
-0.0770675
-0.37984
-0.568446
-0.609609
-0.507905
-0.297179
-0.0323772
0.225084
0.424097
0.533407
0.543435
0.465081
0.326395
0.165236
0.0187998
-0.0854103
-0.133336
-0.123052
-0.0613653
0.0392363
0.162917
0.292738
0.412991
0.511013
0.577981
0.608913
0.602667
0.562311
0.495046
0.410193
0.314839
0.209322
0.0866249
-0.0613473
-0.232293
-0.404384
-0.537594
-0.586211
-0.518228
-0.339497
-0.110881
0.0688737
0.11613
0.0101621
-0.192883
-0.38146
-0.442065
-0.318039
-0.0398744
0.282199
0.505624
0.369301
0.0642255
-0.277401
-0.507496
-0.522381
-0.308896
0.0456547
0.383984
0.55343
0.479048
0.192824
-0.177637
-0.465218
-0.546805
-0.395244
-0.0808742
0.264773
0.516129
0.612323
0.566325
0.435805
0.286479
0.164903
0.0882589
0.0501269
0.0335153
0.0223955
0.00761138
-0.0127592
-0.0362148
-0.0590571
-0.0782989
-0.0919268
-0.0981257
-0.0943213
-0.0767006
-0.0405513
0.0184965
0.102462
0.208645
0.327667
0.442952
0.532451
0.572573
0.543492
0.434795
0.250669
0.0134817
-0.236488
-0.447335
-0.567262
-0.558103
-0.407841
-0.141724
0.172903
0.440016
0.568576
0.508677
0.275315
-0.0449177
-0.319764
-0.433814
-0.350061
-0.131009
0.0930761
0.197453
0.136043
-0.0311645
-0.177416
-0.191088
-0.0386092
0.221419
0.46949
0.590093
0.525383
0.28758
-0.0497341
-0.375388
-0.587123
-0.630799
-0.50584
-0.254128
0.0522845
0.332276
0.522409
0.591414
0.538526
0.386584
0.17515
-0.0494103
-0.246809
-0.392546
-0.479397
-0.511791
-0.49822
-0.44619
-0.361242
-0.248746
-0.116072
0.0266534
0.167616
0.295465
0.401535
0.481384
0.535154
0.566311
0.578527
0.571474
0.537815
0.464419
0.339842
0.166497
-0.0300598
-0.204665
-0.310669
-0.323103
-0.256097
-0.164151
-0.116666
-0.155123
-0.264432
-0.377261
-0.407497
-0.298234
-0.0588366
0.231525
0.456573
0.515477
0.131291
-0.210301
-0.469747
-0.537772
-0.380253
-0.056549
0.295993
0.522074
0.521807
0.292412
-0.0675769
-0.39669
-0.549184
-0.462263
-0.176802
0.182019
0.46539
0.576247
0.503294
0.304388
0.0664429
-0.13704
-0.27152
-0.34016
-0.366225
-0.375129
-0.383983
-0.399192
-0.419422
-0.440343
-0.458284
-0.471616
-0.480291
-0.484519
-0.483457
-0.474314
-0.45204
-0.409718
-0.339813
-0.23645
-0.0985113
0.0672185
0.244233
0.407172
0.525767
0.570972
0.521875
0.372671
0.139308
-0.136564
-0.391677
-0.556472
-0.57648
-0.431384
-0.149736
0.185652
0.458597
0.567405
0.468993
0.199407
-0.130594
-0.379553
-0.449556
-0.335157
-0.116099
0.0914475
0.200405
0.201181
0.157014
0.148104
0.211408
0.317983
0.394516
0.369594
0.213376
-0.0455451
-0.326503
-0.530134
-0.584409
-0.470094
-0.219824
0.0935805
0.379575
0.562632
0.605301
0.509834
0.308858
0.0544542
-0.196186
-0.397995
-0.52997
-0.595705
-0.614424
-0.60875
-0.594913
-0.57843
-0.55541
-0.517453
-0.457317
-0.372872
-0.268037
-0.150891
-0.0302112
0.0878276
0.201118
0.310198
0.414265
0.506735
0.573513
0.596191
0.560121
0.46478
0.330576
0.194122
0.089927
0.0286418
-0.012286
-0.0746008
-0.185323
-0.327956
-0.444535
-0.464253
-0.3408
-0.0870709
0.216313
0.455713
0.535723
0.415889
-0.139594
-0.451371
-0.577589
-0.467783
-0.162759
0.211163
0.493224
0.56373
0.391624
0.0478989
-0.316208
-0.539368
-0.527186
-0.287425
0.0736153
0.39661
0.550053
0.488396
0.25577
-0.0471784
-0.316586
-0.492708
-0.571235
-0.58267
-0.565309
-0.547519
-0.541828
-0.547804
-0.558871
-0.568578
-0.573819
-0.575024
-0.574697
-0.575705
-0.579941
-0.587355
-0.595175
-0.597315
-0.584302
-0.544235
-0.465166
-0.338904
-0.16562
0.0421417
0.257971
0.444365
0.559985
0.56965
0.454926
0.224816
-0.0755611
-0.367408
-0.560225
-0.58443
-0.417713
-0.102433
0.252613
0.509245
0.564285
0.394036
0.0668436
-0.275702
-0.485937
-0.487654
-0.30056
-0.0172613
0.243242
0.398103
0.437545
0.401654
0.332179
0.247294
0.14272
0.00527441
-0.166224
-0.342716
-0.467867
-0.485743
-0.371263
-0.143101
0.140393
0.398399
0.556402
0.572807
0.448277
0.219941
-0.0513941
-0.299626
-0.474273
-0.554602
-0.550876
-0.494878
-0.425466
-0.374995
-0.36105
-0.384814
-0.434435
-0.491107
-0.535905
-0.555372
-0.544075
-0.503576
-0.438842
-0.354161
-0.250786
-0.127981
0.0126673
0.162286
0.303335
0.414412
0.479523
0.496604
0.479447
0.449156
0.417289
0.371173
0.275292
0.0977154
-0.148437
-0.387781
-0.517513
-0.462992
-0.218504
0.132419
0.445776
0.592703
0.513355
0.232845
-0.386287
-0.618141
-0.591388
-0.319325
0.084249
0.443193
0.605529
0.507642
0.191254
-0.205596
-0.50598
-0.582056
-0.405888
-0.0564105
0.308823
0.529437
0.520303
0.298035
-0.0373366
-0.354484
-0.558747
-0.627276
-0.594253
-0.515184
-0.437221
-0.38486
-0.360502
-0.353819
-0.352316
-0.348027
-0.339143
-0.328294
-0.319985
-0.318818
-0.32871
-0.352459
-0.390997
-0.442131
-0.499125
-0.549831
-0.577175
-0.561572
-0.485416
-0.339264
-0.128716
0.120239
0.361322
0.536818
0.593431
0.499372
0.260223
-0.0683555
-0.38524
-0.578335
-0.57039
-0.350541
0.00875105
0.363674
0.562383
0.51893
0.248269
-0.132457
-0.449682
-0.565234
-0.437876
-0.12669
0.234449
0.501524
0.595764
0.517097
0.312317
0.0520168
-0.192277
-0.376222
-0.483597
-0.504261
-0.427525
-0.256591
-0.0196427
0.233204
0.440885
0.547373
0.520296
0.363436
0.116738
-0.155483
-0.384541
-0.51882
-0.537802
-0.454355
-0.306807
-0.144247
-0.0103381
0.0673792
0.0794799
0.0309265
-0.0636728
-0.184161
-0.30912
-0.420486
-0.506886
-0.563966
-0.591733
-0.590655
-0.559005
-0.493357
-0.392505
-0.262457
-0.118121
0.0216382
0.143772
0.248456
0.346514
0.445244
0.530989
0.562564
0.484841
0.264834
-0.0600229
-0.368355
-0.51528
-0.416461
-0.0973099
0.300685
0.587746
0.632675
0.412134
0.0145292
-0.560619
-0.688895
-0.519724
-0.126956
0.312945
0.601675
0.62127
0.370531
-0.0390865
-0.420909
-0.605978
-0.521425
-0.20956
0.187203
0.48779
0.564465
0.394592
0.0596419
-0.294139
-0.5321
-0.596145
-0.510797
-0.347259
-0.179858
-0.0551682
0.015876
0.0468866
0.0591831
0.0692958
0.0841892
0.102847
0.120543
0.132317
0.134182
0.122612
0.0936996
0.0431354
-0.0325754
-0.133832
-0.255172
-0.38296
-0.494802
-0.561923
-0.554991
-0.452811
-0.252897
0.0184243
0.302901
0.52233
0.603812
0.505864
0.239591
-0.117685
-0.437246
-0.592225
-0.513559
-0.221408
0.166752
0.477182
0.568156
0.396245
0.0359893
-0.34269
-0.559382
-0.516184
-0.231755
0.166025
0.496295
0.62419
0.511923
0.209158
-0.166577
-0.479374
-0.644098
-0.641503
-0.489043
-0.228474
0.0738823
0.344242
0.523873
0.576913
0.492102
0.288322
0.0157079
-0.256613
-0.461561
-0.552847
-0.515214
-0.366077
-0.149018
0.081036
0.276537
0.4102
0.475736
0.479709
0.432782
0.345619
0.229043
0.0949741
-0.0443799
-0.178724
-0.301134
-0.4073
-0.493119
-0.552763
-0.579284
-0.568092
-0.521128
-0.447779
-0.359622
-0.260868
-0.142189
0.0132485
0.209462
0.414896
0.559245
0.560214
0.370763
0.0321938
-0.309967
-0.47793
-0.370681
-0.027086
0.377485
0.62675
0.589726
0.27233
-0.183715
-0.628833
-0.655155
-0.379411
0.0727574
0.484568
0.665416
0.543631
0.178908
-0.258674
-0.563896
-0.604563
-0.371512
0.0254933
0.400079
0.582622
0.500925
0.200185
-0.179055
-0.468882
-0.562543
-0.453874
-0.216745
0.0447185
0.249815
0.36943
0.417943
0.428142
0.429683
0.438445
0.456308
0.477295
0.494604
0.50449
0.506192
0.499569
0.48259
0.450065
0.394003
0.305496
0.178034
0.0121375
-0.179615
-0.369579
-0.517269
-0.578223
-0.517588
-0.32572
-0.033101
0.284821
0.526523
0.602722
0.471828
0.164053
-0.210933
-0.499514
-0.576743
-0.403159
-0.0479018
0.326635
0.541922
0.496495
0.210598
-0.177117
-0.472361
-0.530601
-0.324385
0.0455708
0.392793
0.546765
0.435491
0.103847
-0.303623
-0.614232
-0.721659
-0.60892
-0.321036
0.0492135
0.385091
0.594129
0.635038
0.510566
0.258692
-0.0515343
-0.336982
-0.527175
-0.582004
-0.496055
-0.296814
-0.0375144
0.219418
0.424188
0.554563
0.615966
0.629566
0.617414
0.592684
0.557988
0.509647
0.443382
0.357773
0.254545
0.137294
0.0108786
-0.117835
-0.239292
-0.34279
-0.42062
-0.472129
-0.503353
-0.519828
-0.515738
-0.467965
-0.34397
-0.126639
0.153425
0.406421
0.517474
0.411206
0.112748
-0.232396
-0.428169
-0.35178
-0.0334222
0.347452
0.566005
0.488715
0.137925
-0.312816
-0.569974
-0.516455
-0.191948
0.244905
0.56997
0.623722
0.383333
-0.0375328
-0.433748
-0.615896
-0.505835
-0.1591
0.258441
0.547981
0.581461
0.351983
-0.0296472
-0.382301
-0.549384
-0.474127
-0.208337
0.126119
0.405797
0.566817
0.614723
0.594135
0.554455
0.528527
0.526268
0.540444
0.558059
0.569941
0.574393
0.575328
0.577882
0.584391
0.592072
0.59237
0.571522
0.51246
0.398952
0.222812
-0.00674905
-0.256054
-0.469104
-0.582247
-0.546126
-0.347763
-0.0291098
0.310673
0.547239
0.584413
0.395321
0.0437471
-0.324621
-0.545406
-0.518118
-0.251708
0.131151
0.444096
0.536363
0.367601
0.0246031
-0.315858
-0.480912
-0.394084
-0.110101
0.211035
0.391103
0.331006
0.056128
-0.295241
-0.548396
-0.590931
-0.407803
-0.0670374
0.304027
0.571262
0.653961
0.540364
0.272744
-0.0658139
-0.373603
-0.566332
-0.601546
-0.480789
-0.243309
0.0439249
0.306419
0.488142
0.56858
0.563192
0.510387
0.452603
0.42009
0.423606
0.456405
0.501593
0.540387
0.557975
0.545671
0.500334
0.423308
0.320321
0.201471
0.0789543
-0.0383083
-0.149963
-0.263625
-0.384996
-0.502823
-0.580314
-0.563904
-0.411154
-0.130625
0.190186
0.410022
0.41387
0.191566
-0.13431
-0.366625
-0.359113
-0.112363
0.219547
0.422229
0.358025
0.0472036
-0.33683
-0.383862
-0.289995
0.00916559
0.353316
0.546257
0.473901
0.159578
-0.245996
-0.537733
-0.570303
-0.326315
0.0796774
0.450225
0.609181
0.487366
0.143869
-0.256679
-0.523364
-0.540198
-0.311025
0.0542412
0.398608
0.606121
0.650793
0.577996
0.459534
0.356234
0.29792
0.283037
0.292163
0.304547
0.309006
0.306239
0.30475
0.31473
0.343377
0.392524
0.457531
0.526183
0.577782
0.584429
0.516884
0.356017
0.107938
-0.184196
-0.443702
-0.584845
-0.546477
-0.320564
0.0288941
0.373573
0.572832
0.539218
0.277417
-0.105378
-0.435121
-0.558812
-0.420268
-0.084441
0.285193
0.507757
0.482201
0.231304
-0.112265
-0.372814
-0.428906
-0.275509
-0.0195951
0.183558
0.220523
0.0813299
-0.137653
-0.294131
-0.286411
-0.101563
0.185539
0.448398
0.573059
0.508647
0.274804
-0.0525181
-0.365733
-0.566061
-0.598808
-0.462527
-0.202056
0.104444
0.369626
0.527421
0.552741
0.463495
0.309118
0.149967
0.0351702
-0.0101274
0.0155316
0.0974154
0.212849
0.337794
0.451362
0.538046
0.588169
0.59791
0.569788
0.512579
0.438209
0.354599
0.258052
0.132559
-0.0383196
-0.249588
-0.457258
-0.584388
-0.555186
-0.342805
-0.0108307
0.291294
0.408644
0.281719
-0.00895349
-0.282601
-0.372279
-0.234077
0.0270824
0.227383
0.22757
0.02507
-0.24146
-0.109519
-0.0261144
0.173621
0.363508
0.403355
0.23195
-0.0907725
-0.407381
-0.54918
-0.431088
-0.0952385
0.30193
0.566845
0.573122
0.315855
-0.0866142
-0.440868
-0.580886
-0.449158
-0.112055
0.272907
0.541353
0.61125
0.502504
0.297899
0.0909067
-0.0560483
-0.127137
-0.141663
-0.131575
-0.122642
-0.125439
-0.136171
-0.143307
-0.13449
-0.100145
-0.0339435
0.0671366
0.200336
0.351916
0.492639
0.579442
0.566501
0.423897
0.159203
-0.16758
-0.453354
-0.591518
-0.518122
-0.243487
0.134503
0.458236
0.585366
0.45627
0.12163
-0.266918
-0.524992
-0.533354
-0.290829
0.0857984
0.412321
0.535664
0.409959
0.107439
-0.219588
-0.418505
-0.41906
-0.259042
-0.0466871
0.107002
0.148895
0.107516
0.0650137
0.0942332
0.20751
0.349188
0.431187
0.386131
0.201956
-0.0740219
-0.352795
-0.538627
-0.567748
-0.42884
-0.16292
0.149477
0.414498
0.558176
0.548648
0.400568
0.166844
-0.0812403
-0.281671
-0.401359
-0.436664
-0.401127
-0.313218
-0.190174
-0.0470576
0.101937
0.242412
0.360564
0.446293
0.497304
0.520981
0.530472
0.53419
0.523882
0.470971
0.338702
0.109848
-0.181572
-0.4421
-0.556743
-0.453635
-0.158814
0.189504
0.407372
0.381979
0.139969
-0.169438
-0.366339
-0.355897
-0.179722
0.0249155
0.12284
0.072818
-0.0485096
0.175145
0.200156
0.250256
0.260135
0.161838
-0.0533832
-0.309884
-0.479474
-0.455082
-0.216652
0.144896
0.462415
0.581463
0.439407
0.0932103
-0.297489
-0.546236
-0.539399
-0.284566
0.0959526
0.42178
0.553684
0.459705
0.207388
-0.0872923
-0.323122
-0.455764
-0.496687
-0.485489
-0.462398
-0.452176
-0.460273
-0.47845
-0.49416
-0.497273
-0.480935
-0.438093
-0.358233
-0.229009
-0.0448829
0.179963
0.403026
0.559437
0.584044
0.440215
0.146612
-0.209475
-0.495512
-0.592923
-0.451046
-0.115279
0.274331
0.541116
0.562645
0.325337
-0.065438
-0.423158
-0.577223
-0.458835
-0.124899
0.263938
0.521322
0.535341
0.311637
-0.0402175
-0.357799
-0.511367
-0.464863
-0.268278
-0.0149945
0.20321
0.337652
0.397153
0.416731
0.412442
0.367678
0.25557
0.069133
-0.163998
-0.385418
-0.524752
-0.527534
-0.379204
-0.114423
0.191213
0.44643
0.576861
0.547909
0.371502
0.10104
-0.186557
-0.421372
-0.567152
-0.626135
-0.623681
-0.587941
-0.536425
-0.472867
-0.392514
-0.291305
-0.173179
-0.0509876
0.0598107
0.151123
0.229089
0.311088
0.411027
0.519914
0.596406
0.578989
0.418304
0.119915
-0.225686
-0.469416
-0.487439
-0.259174
0.102816
0.400996
0.474725
0.293869
-0.0339207
-0.327109
-0.442303
-0.354162
-0.146667
0.0545521
0.163588
0.181956
0.391892
0.328873
0.217863
0.0663495
-0.11889
-0.307211
-0.435419
-0.431559
-0.260979
0.0360878
0.343932
0.5222
0.479695
0.221425
-0.144611
-0.449025
-0.547936
-0.395276
-0.0622883
0.290974
0.495802
0.464335
0.223159
-0.113751
-0.412356
-0.589992
-0.639905
-0.605894
-0.544218
-0.496976
-0.481417
-0.493025
-0.517078
-0.541004
-0.560501
-0.576911
-0.588711
-0.583223
-0.534831
-0.413525
-0.203273
0.0765161
0.361202
0.557885
0.584203
0.40711
0.070652
-0.300904
-0.550832
-0.566807
-0.332018
0.0578804
0.42327
0.591125
0.482174
0.142678
-0.267143
-0.547309
-0.56621
-0.316289
0.0853024
0.444645
0.594968
0.476182
0.145472
-0.247801
-0.531907
-0.602272
-0.45069
-0.144317
0.20047
0.466809
0.59419
0.582573
0.455925
0.243752
-0.0136686
-0.26537
-0.459626
-0.551785
-0.511663
-0.336611
-0.0632351
0.236152
0.476282
0.58847
0.541141
0.34772
0.0642645
-0.227203
-0.450323
-0.565092
-0.578322
-0.530747
-0.472397
-0.44034
-0.446731
-0.478558
-0.508005
-0.509239
-0.472571
-0.407557
-0.333671
-0.264122
-0.192687
-0.0936698
0.0605092
0.270032
0.485909
0.619358
0.58356
0.346618
-0.0225873
-0.358242
-0.48733
-0.337499
0.0142391
0.371855
0.537451
0.427848
0.105659
-0.257612
-0.479642
-0.472888
-0.27011
0.0153383
0.255925
0.38012
0.506317
0.349423
0.100816
-0.159754
-0.363156
-0.462598
-0.430335
-0.263302
0.000406306
0.276685
0.458448
0.461816
0.270102
-0.0475454
-0.355469
-0.512
-0.440055
-0.166105
0.185226
0.446753
0.494602
0.307619
-0.026897
-0.361114
-0.571357
-0.617438
-0.537241
-0.40413
-0.284897
-0.215628
-0.198795
-0.215353
-0.24236
-0.267593
-0.294823
-0.337929
-0.407514
-0.496808
-0.574332
-0.589543
-0.492795
-0.26432
0.0589277
0.379521
0.576063
0.560174
0.319566
-0.0605909
-0.417176
-0.587
-0.48827
-0.157672
0.253037
0.544264
0.576186
0.331153
-0.0775873
-0.449022
-0.601745
-0.4644
-0.0996254
0.31735
0.585441
0.585138
0.319092
-0.0946792
-0.468719
-0.644851
-0.562629
-0.26118
0.135264
0.465723
0.618272
0.567055
0.347912
0.0352329
-0.275399
-0.499139
-0.586385
-0.522487
-0.322308
-0.0329644
0.269509
0.501453
0.598833
0.534277
0.324161
0.0287271
-0.263148
-0.46667
-0.53399
-0.469377
-0.322498
-0.163988
-0.0558222
-0.0322763
-0.0948111
-0.215193
-0.347142
-0.447741
-0.497978
-0.507952
-0.503797
-0.504727
-0.503371
-0.462177
-0.331936
-0.0889551
0.225534
0.500186
0.6052
0.466014
0.120724
-0.266068
-0.484976
-0.413726
-0.0883485
0.3095
0.556808
0.523841
0.229687
-0.172752
-0.475552
-0.538691
-0.350301
-0.0111149
0.318168
0.505386
0.53475
0.29702
-0.0474077
-0.356248
-0.519587
-0.495754
-0.304052
-0.0135998
0.274302
0.458674
0.469795
0.294567
-0.00702037
-0.315512
-0.500312
-0.476037
-0.242436
0.104755
0.410045
0.533826
0.417967
0.112532
-0.242699
-0.492023
-0.549561
-0.428612
-0.211721
0.00361055
0.151842
0.215982
0.216121
0.18787
0.161883
0.149289
0.137675
0.0990602
0.00581837
-0.151106
-0.347104
-0.521107
-0.594064
-0.503941
-0.242792
0.118475
0.443616
0.593707
0.495153
0.176902
-0.22493
-0.521549
-0.571024
-0.345257
0.0537317
0.43027
0.598371
0.476805
0.120459
-0.296284
-0.564586
-0.555008
-0.271304
0.151135
0.504746
0.623997
0.459349
0.0867889
-0.318969
-0.571739
-0.569874
-0.326336
0.0408709
0.357776
0.489898
0.400842
0.142159
-0.178425
-0.440503
-0.560553
-0.512282
-0.31624
-0.0276668
0.273178
0.501556
0.594155
0.524357
0.307611
0.00329557
-0.296643
-0.499356
-0.54558
-0.428304
-0.194336
0.0735286
0.292712
0.41155
0.414769
0.315582
0.150924
-0.0261054
-0.167409
-0.254419
-0.305102
-0.357436
-0.439825
-0.544338
-0.618996
-0.588024
-0.394917
-0.0556005
0.312854
0.540062
0.503617
0.206065
-0.201214
-0.487993
-0.490055
-0.202018
0.218256
0.534702
0.577929
0.326981
-0.0882273
-0.446985
-0.568181
-0.402431
-0.0379365
0.341671
0.558863
0.518448
0.222786
-0.176494
-0.489318
-0.584026
-0.434638
-0.11036
0.25138
0.505428
0.559659
0.394353
0.0689627
-0.286655
-0.527329
-0.555758
-0.35444
0.000506982
0.358207
0.56374
0.530177
0.271262
-0.0969543
-0.403377
-0.514263
-0.397957
-0.124621
0.182144
0.415715
0.532206
0.546255
0.502707
0.451259
0.427767
0.441653
0.473454
0.483705
0.428249
0.275627
0.0271848
-0.265352
-0.505488
-0.591176
-0.464671
-0.149968
0.235342
0.52324
0.581254
0.375443
-0.00805994
-0.387534
-0.577169
-0.484427
-0.149965
0.262983
0.546499
0.561873
0.301148
-0.108869
-0.460778
-0.58066
-0.413727
-0.0420616
0.35003
0.574076
0.535321
0.263954
-0.100796
-0.378225
-0.446186
-0.296165
-0.028813
0.199165
0.265904
0.146267
-0.0920191
-0.33188
-0.465969
-0.44235
-0.271862
-0.0100061
0.264557
0.472229
0.554533
0.486936
0.281979
-0.00964959
-0.305224
-0.514199
-0.570442
-0.452825
-0.192833
0.130926
0.423588
0.617822
0.692402
0.658624
0.543901
0.388752
0.24298
0.146137
0.103474
0.0806961
0.0235673
-0.109498
-0.314772
-0.526607
-0.637879
-0.554418
-0.258872
0.143107
0.454462
0.506285
0.262239
-0.147549
-0.485408
-0.554909
-0.312351
0.113471
0.484382
0.598361
0.397701
-0.0122807
-0.408046
-0.577864
-0.440396
-0.0704289
0.335124
0.56622
0.495614
0.16688
-0.259385
-0.559739
-0.590014
-0.339816
0.0765033
0.465785
0.659752
0.586896
0.275479
-0.149087
-0.504288
-0.645091
-0.520453
-0.179709
0.23404
0.540832
0.614957
0.431702
0.0729459
-0.295419
-0.501795
-0.458124
-0.193404
0.168752
0.480431
0.651504
0.675656
0.600511
0.490982
0.405787
0.382266
0.427639
0.518895
0.610889
0.648584
0.580343
0.376409
0.0568803
-0.290189
-0.535425
-0.571638
-0.367858
0.00281855
0.37684
0.578742
0.511971
0.201616
-0.206707
-0.510413
-0.560578
-0.332606
0.0629617
0.426175
0.575734
0.441396