# vtk DataFile Version 3.0
PFC simulation results
ASCII
DATASET STRUCTURED_POINTS
DIMENSIONS 128 128 1
ORIGIN 0 0 0
SPACING 1 1 1
POINT_DATA 16384
SCALARS psi double
LOOKUP_TABLE default
-0.462423
-0.572492
-0.426008
-0.0890901
0.284607
0.526121
0.536286
0.320471
-0.0245625
-0.356407
-0.556051
-0.575666
-0.438528
-0.211607
0.0286417
0.226482
0.360317
0.436489
0.474226
0.492844
0.505311
0.517389
0.529904
0.541683
0.551612
0.559372
0.565264
0.569746
0.573124
0.575524
0.577023
0.577831
0.578403
0.57947
0.581933
0.586585
0.593591
0.601707
0.607408
0.604232
0.582884
0.532569
0.443762
0.312015
0.141638
-0.0524901
-0.246408
-0.411735
-0.521764
-0.557056
-0.50974
-0.385965
-0.205313
0.00335391
0.207778
0.377519
0.488278
0.525666
0.485889
0.371818
0.190958
-0.0368766
-0.271238
-0.461865
-0.572904
-0.591152
-0.515933
-0.356273
-0.138779
0.094977
0.30377
0.455624
0.52652
0.501482
0.380962
0.184422
-0.0524355
-0.284047
-0.463736
-0.554408
-0.537512
-0.41666
-0.216295
0.0232531
0.254754
0.435849
0.53882
0.554839
0.493599
0.380235
0.249214
0.135271
0.0646005
0.0500659
0.0909665
0.175363
0.283648
0.393394
0.484903
0.545335
0.569658
0.558763
0.516513
0.447107
0.35331
0.236067
0.0962044
-0.0618471
-0.226283
-0.377111
-0.489664
-0.541264
-0.519993
-0.43492
-0.321675
-0.23242
-0.210173
-0.263897
-0.357494
-0.415608
-0.353659
-0.133633
0.189783
0.48723
0.629222
0.545963
0.252502
-0.140436
-0.530635
-0.491607
-0.224527
0.147189
0.44876
0.542883
0.392189
0.0672821
-0.287297
-0.524355
-0.563049
-0.409085
-0.134265
0.162427
0.399677
0.541788
0.596124
0.592609
0.563685
0.532732
0.511024
0.500327
0.497541
0.498623
0.500569
0.501691
0.50106
0.497951
0.491625
0.481471
0.467285
0.449557
0.42969
0.410096
0.394147
0.385873
0.389303
0.407393
0.440624
0.485547
0.533819
0.572397
0.585358
0.557319
0.477735
0.344847
0.167854
-0.0336754
-0.233118
-0.401701
-0.513623
-0.550367
-0.503371
-0.374793
-0.177781
0.0619104
0.30492
0.503527
0.613093
0.601022
0.45197
0.181293
-0.147876
-0.437448
-0.601652
-0.600017
-0.436528
-0.155751
0.161494
0.427208
0.582496
0.605928
0.502915
0.300644
0.0455253
-0.208067
-0.41197
-0.531645
-0.548398
-0.461151
-0.287123
-0.0592673
0.179633
0.385431
0.521978
0.56817
0.52049
0.392086
0.21012
0.0106632
-0.169741
-0.302925
-0.37334
-0.37648
-0.315373
-0.19935
-0.0449543
0.124823
0.285657
0.419144
0.517124
0.580485
0.614191
0.622062
0.603786
0.555124
0.471235
0.352089
0.207415
0.0574976
-0.0724322
-0.162488
-0.208556
-0.227752
-0.253205
-0.315685
-0.421508
-0.543027
-0.625069
-0.600025
-0.41669
-0.08817
0.280763
0.541034
0.585448
0.393872
0.040412
-0.322536
-0.50421
-0.31496
0.0264014
0.360302
0.529257
0.45551
0.172331
-0.191253
-0.472289
-0.556154
-0.420765
-0.130688
0.199331
0.460267
0.59516
0.606775
0.535065
0.429133
0.327398
0.249642
0.199209
0.170188
0.154348
0.145128
0.138603
0.132685
0.126001
0.117246
0.105136
0.0887072
0.0676518
0.0425589
0.0150545
-0.0121191
-0.035084
-0.0489297
-0.0480494
-0.0268361
0.0191585
0.0916132
0.187645
0.298465
0.409308
0.50121
0.554459
0.552766
0.486944
0.357316
0.174734
-0.0395631
-0.255515
-0.438036
-0.552971
-0.573345
-0.48457
-0.290591
-0.0217329
0.263546
0.492282
0.599345
0.54469
0.329523
0.0152915
-0.284194
-0.455207
-0.436036
-0.232797
0.0835534
0.398955
0.607344
0.652912
0.532336
0.282357
-0.0282496
-0.317192
-0.517678
-0.594799
-0.543708
-0.383562
-0.152697
0.0996746
0.325051
0.485089
0.556499
0.532509
0.421881
0.246046
0.0350625
-0.177675
-0.362396
-0.499777
-0.583709
-0.617943
-0.609263
-0.562416
-0.480144
-0.367147
-0.233395
-0.0929097
0.0414431
0.162712
0.270367
0.366637
0.451732
0.521147
0.566524
0.579529
0.556864
0.503918
0.434419
0.364662
0.303793
0.244949
0.164087
0.0327886
-0.15714
-0.375203
-0.55935
-0.641598
-0.57046
-0.333968
0.00842711
0.325288
0.479387
0.405419
0.137573
-0.203509
-0.45822
-0.381048
-0.0738102
0.275884
0.506021
0.509206
0.280526
-0.0781604
-0.402061
-0.547653
-0.458854
-0.180574
0.167793
0.451443
0.584702
0.55626
0.411597
0.21896
0.0376959
-0.0997964
-0.188328
-0.238952
-0.266866
-0.283959
-0.296712
-0.307542
-0.317131
-0.326075
-0.335372
-0.346136
-0.35914
-0.374568
-0.39201
-0.410562
-0.428855
-0.444929
-0.455981
-0.458074
-0.446
-0.413536
-0.354345
-0.263674
-0.140659
0.00941749
0.173909
0.333527
0.465152
0.545953
0.557568
0.48962
0.342917
0.132709
-0.109562
-0.339355
-0.50813
-0.574902
-0.516702
-0.338584
-0.081141
0.184693
0.379895
0.444357
0.358753
0.161408
-0.0549971
-0.184246
-0.160375
0.0127427
0.262453
0.479584
0.5716
0.498017
0.273846
-0.0380308
-0.344122
-0.555918
-0.622128
-0.535514
-0.325052
-0.0469616
0.229835
0.44447
0.558988
0.561108
0.460566
0.284004
0.068119
-0.148795
-0.334519
-0.468303
-0.54385
-0.569121
-0.56189
-0.541997
-0.523719
-0.511788
-0.5024
-0.487732
-0.460879
-0.418385
-0.359662
-0.28496
-0.194346
-0.0887814
0.0277346
0.147192
0.259294
0.355295
0.431569
0.490417
0.537101
0.574145
0.595272
0.581874
0.506163
0.346285
0.111151
-0.145229
-0.341818
-0.409254
-0.318448
-0.0964677
0.16591
0.341747
0.335933
0.141217
-0.156261
-0.416413
-0.510375
-0.179356
0.184703
0.472089
0.553374
0.389341
0.0494323
-0.311438
-0.528093
-0.507636
-0.264329
0.0916471
0.406709
0.561584
0.519456
0.322017
0.0554884
-0.193703
-0.373974
-0.476513
-0.52047
-0.532975
-0.535542
-0.539261
-0.546509
-0.55538
-0.56353
-0.569926
-0.574735
-0.578468
-0.581343
-0.583237
-0.584051
-0.584119
-0.584362
-0.586049
-0.590189
-0.596671
-0.603353
-0.605363
-0.594961
-0.562306
-0.497329
-0.392585
-0.246557
-0.0664591
0.13064
0.319339
0.470055
0.554659
0.552189
0.454301
0.270517
0.0312423
-0.215515
-0.41511
-0.520874
-0.507542
-0.381133
-0.180978
0.0316224
0.194879
0.268385
0.250108
0.181222
0.126325
0.134866
0.21089
0.310584
0.367231
0.326565
0.171393
-0.0696676
-0.327698
-0.518603
-0.578955
-0.487579
-0.266845
0.0249205
0.30937
0.514256
0.595715
0.544344
0.380469
0.146651
-0.103372
-0.319398
-0.466683
-0.530562
-0.515688
-0.442675
-0.342089
-0.245938
-0.179521
-0.156808
-0.179919
-0.241089
-0.325596
-0.415274
-0.492455
-0.543477
-0.560498
-0.541378
-0.488624
-0.4083
-0.308648
-0.19769
-0.080237
0.0435367
0.175769
0.315068
0.4507
0.561079
0.617708
0.593696
0.477963
0.292931
0.0994465
-0.0275535
-0.0388921
0.0634379
0.222472
0.341703
0.327773
0.148087
-0.139334
-0.411462
-0.542076
-0.458986
0.0625727
0.408308
0.575727
0.491692
0.189981
-0.194945
-0.485383
-0.551302
-0.3673
-0.019021
0.334055
0.539337
0.523577
0.310352
-0.00496238
-0.306115
-0.512286
-0.603114
-0.604701
-0.560895
-0.510049
-0.473703
-0.456555
-0.453152
-0.455548
-0.458068
-0.45836
-0.456112
-0.451382
-0.44379
-0.432761
-0.418307
-0.401738
-0.385888
-0.374791
-0.372895
-0.38399
-0.409976
-0.449624
-0.497559
-0.54385
-0.57465
-0.574161
-0.527877
-0.426621
-0.270594
-0.0722285
0.143618
0.343139
0.490202
0.554227
0.517567
0.381402
0.168645
-0.0783979
-0.306578
-0.465043
-0.519527
-0.462339
-0.312688
-0.109051
0.0996362
0.265545
0.360374
0.385998
0.361574
0.302529
0.21441
0.0978749
-0.046645
-0.211061
-0.368536
-0.474177
-0.484048
-0.37752
-0.167845
0.0988808
0.354459
0.530238
0.580587
0.494465
0.294511
0.0302336
-0.23479
-0.44175
-0.552587
-0.555321
-0.461293
-0.299822
-0.110639
0.0666891
0.202613
0.281555
0.299444
0.259087
0.167619
0.0368632
-0.115901
-0.269754
-0.404956
-0.508021
-0.573893
-0.604604
-0.605953
-0.583847
-0.541153
-0.475833
-0.381773
-0.253575
-0.0943822
0.0779755
0.232548
0.335766
0.365925
0.326303
0.25155
0.197318
0.210012
0.296495
0.416886
0.4987
0.463317
0.268143
-0.0495876
-0.373826
-0.569991
-0.55064
-0.309999
0.295745
0.553403
0.568036
0.332393
-0.0511728
-0.406375
-0.570257
-0.471731
-0.157371
0.226176
0.501667
0.552614
0.368222
0.0351964
-0.307522
-0.541001
-0.618172
-0.562177
-0.433307
-0.29396
-0.18498
-0.119061
-0.0884384
-0.0776483
-0.0733995
-0.0685977
-0.0614577
-0.052488
-0.0419726
-0.0291629
-0.012937
0.00701884
0.0293433
0.050804
0.0666757
0.0714094
0.0593754
0.0256729
-0.0328452
-0.116213
-0.219819
-0.333247
-0.440291
-0.520733
-0.553859
-0.523079
-0.420702
-0.251915
-0.0367375
0.191399
0.391165
0.522
0.553444
0.47252
0.28813
0.0330013
-0.238073
-0.458684
-0.570323
-0.539608
-0.365702
-0.0869134
0.216306
0.447433
0.54006
0.477723
0.286215
0.026246
-0.225823
-0.41354
-0.513301
-0.517972
-0.426987
-0.252862
-0.0253317
0.212979
0.412843
0.527479
0.525942
0.403931
0.186273
-0.0779657
-0.32709
-0.504279
-0.573582
-0.526326
-0.378681
-0.165587
0.0680159
0.279563
0.440833
0.54262
0.590047
0.593168
0.559395
0.491556
0.391204
0.263559
0.11976
-0.0255987
-0.159767
-0.276023
-0.374066
-0.456855
-0.526052
-0.578478
-0.60535
-0.59507
-0.539249
-0.440208
-0.315727
-0.195527
-0.108088
-0.0638965
-0.0445984
-0.00686964
0.0931438
0.264003
0.461704
0.608951
0.628778
0.472252
0.152633
-0.229318
-0.52217
-0.605814
-0.442991
-0.0935381
0.472971
0.593197
0.451533
0.106643
-0.286159
-0.544518
-0.551755
-0.305431
0.0811413
0.425321
0.56983
0.457109
0.143879
-0.228012
-0.503632
-0.593959
-0.501196
-0.292779
-0.0576797
0.134916
0.256882
0.315841
0.336198
0.341946
0.347736
0.358006
0.370991
0.383652
0.39469
0.404936
0.416103
0.429288
0.444131
0.45879
0.470352
0.475194
0.469048
0.446852
0.402817
0.331197
0.228023
0.0936323
-0.0648063
-0.231961
-0.385302
-0.498622
-0.547313
-0.514014
-0.393636
-0.197284
0.0457826
0.29025
0.482875
0.575162
0.535614
0.359317
0.077219
-0.239504
-0.494815
-0.602104
-0.51416
-0.243539
0.121216
0.437145
0.578498
0.49228
0.209224
-0.162616
-0.482512
-0.652681
-0.646084
-0.482742
-0.213736
0.0867033
0.34503
0.510412
0.557104
0.481
0.300827
0.0567708
-0.197972
-0.408856
-0.531754
-0.54284
-0.443189
-0.256817
-0.0240836
0.208189
0.399156
0.525428
0.585935
0.597621
0.584766
0.56765
0.555525
0.545974
0.529608
0.496879
0.443228
0.370109
0.282169
0.183335
0.0748916
-0.0430481
-0.167782
-0.290835
-0.398224
-0.47499
-0.512094
-0.51223
-0.490785
-0.469104
-0.461218
-0.460516
-0.434657
-0.336218
-0.133717
0.149618
0.427889
0.594653
0.574439
0.351122
-0.0104492
-0.367533
-0.565707
-0.519195
-0.243829
0.144867
0.557855
0.51929
0.248014
-0.140116
-0.467015
-0.581805
-0.431649
-0.0822781
0.303524
0.543754
0.531522
0.277567
-0.0985833
-0.424105
-0.564193
-0.481551
-0.232359
0.0750687
0.337381
0.501088
0.568403
0.573483
0.555337
0.541088
0.541071
0.552678
0.567993
0.580324
0.587058
0.589111
0.588861
0.588378
0.588742
0.5903
0.593185
0.597441
0.602476
0.606004
0.602996
0.585315
0.542559
0.464338
0.343739
0.18122
-0.0122877
-0.214562
-0.394638
-0.518512
-0.556443
-0.49014
-0.319496
-0.0687299
0.211409
0.451577
0.582588
0.556445
0.363957
0.0502657
-0.283654
-0.51348
-0.544098
-0.350905
-0.00525101
0.337397
0.513772
0.436929
0.13185
-0.268565
-0.587407
-0.704043
-0.59184
-0.29753
0.07699
0.407652
0.602583
0.626993
0.491891
0.242221
-0.0524884
-0.318347
-0.498348
-0.561099
-0.501196
-0.337975
-0.110911
0.130239
0.337581
0.475812
0.529667
0.506452
0.432211
0.342183
0.269224
0.234918
0.24603
0.295875
0.36875
0.445676
0.509795
0.549695
0.559694
0.537856
0.483865
0.398819
0.287235
0.159233
0.0297188
-0.0868117
-0.183435
-0.265014
-0.345219
-0.435949
-0.534284
-0.615225
-0.635132
-0.547097
-0.330823
-0.0276543
0.257403
0.408221
0.359627
0.127138
-0.189434
-0.439876
-0.498952
-0.328582
0.00512976
0.354444
0.529958
0.342169
-0.00382003
-0.35704
-0.555727
-0.507367
-0.228371
0.157236
0.468539
0.560946
0.394598
0.0480201
-0.314429
-0.525353
-0.499525
-0.261375
0.0800331
0.390858
0.581533
0.636584
0.595195
0.514735
0.442227
0.400969
0.39145
0.400995
0.414782
0.422986
0.422488
0.414824
0.403144
0.390217
0.378041
0.368507
0.364167
0.368384
0.384562
0.414631
0.457245
0.506316
0.550524
0.574254
0.560162
0.49312
0.365034
0.179678
-0.0438811
-0.271374
-0.458523
-0.5607
-0.544262
-0.397654
-0.141936
0.163697
0.431812
0.574641
0.536187
0.317083
-0.0109548
-0.318906
-0.474865
-0.408587
-0.151939
0.162342
0.3643
0.341094
0.0965265
-0.245566
-0.507894
-0.56322
-0.38476
-0.0401217
0.33537
0.599965
0.671218
0.540417
0.256441
-0.0894112
-0.392493
-0.574555
-0.602423
-0.483199
-0.255867
0.0183616
0.273321
0.456356
0.538066
0.513729
0.401161
0.235347
0.0585023
-0.0917605
-0.190579
-0.227357
-0.202677
-0.124585
-0.0063574
0.134937
0.280536
0.412992
0.518843
0.589681
0.621731
0.615234
0.574612
0.50872
0.429101
0.345085
0.257803
0.157892
0.0310557
-0.128893
-0.306888
-0.46402
-0.549345
-0.520663
-0.369942
-0.145626
0.0548155
0.135533
0.0585436
-0.13396
-0.335247
-0.424375
-0.33026
-0.0706296
0.250693
0.489107
0.389688
0.0927037
-0.254066
-0.499415
-0.531906
-0.330277
0.02283
0.368096
0.545164
0.472351
0.181849
-0.190734
-0.468278
-0.524386
-0.339897
-0.0026094
0.339276
0.557236
0.602396
0.505585
0.339592
0.177235
0.0631117
0.00695267
-0.00582981
0.00180381
0.0108442
0.0115836
0.00275683
-0.0124492
-0.0302174
-0.047939
-0.064057
-0.0769103
-0.0836435
-0.0798142
-0.0598626
-0.0183201
0.0484602
0.140306
0.25135
0.36888
0.473644
0.542089
0.550561
0.481058
0.327944
0.104496
-0.153455
-0.39094
-0.546348
-0.569318
-0.438174
-0.174521
0.150058
0.429192
0.561815
0.494892
0.249666
-0.0746943
-0.335863
-0.41917
-0.300091
-0.0599777
0.156673
0.225539
0.114833
-0.0954068
-0.262815
-0.272127
-0.0964547
0.194054
0.467628
0.601026
0.536091
0.290005
-0.0565372
-0.386047
-0.593332
-0.624885
-0.483397
-0.216518
0.0968344
0.370937
0.541925
0.58155
0.494631
0.311637
0.0797312
-0.150632
-0.340558
-0.471053
-0.541154
-0.559412
-0.535236
-0.474593
-0.380771
-0.257929
-0.114127
0.0383268
0.18522
0.313844
0.415724
0.487942
0.533074
0.557662
0.568778
0.569061
0.552521
0.504598
0.409007
0.26049
0.0768453
-0.100614
-0.223076
-0.258604
-0.212264
-0.131328
-0.0843721
-0.118996
-0.228714
-0.352182
-0.402679
-0.315425
-0.0897394
0.200926
0.439229
0.518
0.162586
-0.180766
-0.453583
-0.540019
-0.398381
-0.081796
0.274324
0.510216
0.518516
0.291968
-0.0689928
-0.395699
-0.535844
-0.42755
-0.122911
0.236552
0.492967
0.554835
0.42736
0.187648
-0.064882
-0.257062
-0.364356
-0.401593
-0.400206
-0.389177
-0.385509
-0.393493
-0.409422
-0.427487
-0.443653
-0.456601
-0.466673
-0.47426
-0.478557
-0.476952
-0.464933
-0.436389
-0.384316
-0.30214
-0.185856
-0.0368945
0.134934
0.309669
0.458113
0.546364
0.543675
0.432315
0.217963
-0.0622329
-0.340721
-0.536247
-0.581388
-0.447885
-0.16429
0.179015
0.455393
0.557353
0.445179
0.166089
-0.157487
-0.381955
-0.420197
-0.284753
-0.0704661
0.104604
0.167313
0.129402
0.0707535
0.0757179
0.172682
0.316658
0.418887
0.400782
0.235309
-0.0400212
-0.334445
-0.541812
-0.588817
-0.459529
-0.193156
0.129289
0.411219
0.57623
0.590553
0.463062
0.235193
-0.0322032
-0.277475
-0.457967
-0.560412
-0.597544
-0.595546
-0.579941
-0.565783
-0.554718
-0.538221
-0.504329
-0.444536
-0.357917
-0.25117
-0.135261
-0.0207116
0.0863059
0.185437
0.280365
0.374143
0.463742
0.537258
0.576457
0.564656
0.49719
0.388987
0.27179
0.177978
0.119267
0.075494
0.00570889
-0.118733
-0.282499
-0.426065
-0.475034
-0.376988
-0.136333
0.171342
0.429149
0.533434
0.435288
-0.103578
-0.425033
-0.568613
-0.4764
-0.183081
0.188914
0.477901
0.558622
0.394102
0.0529776
-0.310771
-0.529916
-0.5066
-0.252974
0.112404
0.418475
0.532375
0.419874
0.145041
-0.173124
-0.426452
-0.566182
-0.604164
-0.583318
-0.547681
-0.525283
-0.524431
-0.539336
-0.559185
-0.575356
-0.584293
-0.586746
-0.585574
-0.583847
-0.583791
-0.586278
-0.590377
-0.592755
-0.587056
-0.563697
-0.510659
-0.415885
-0.271598
-0.080111
0.140652
0.355253
0.515833
0.574454
0.498797
0.28757
-0.0170382
-0.329548
-0.546145
-0.585373
-0.420785
-0.099393
0.259935
0.51095
0.550839
0.364782
0.0332308
-0.296115
-0.482175
-0.46404
-0.275442
-0.0126956
0.215669
0.345072
0.380167
0.36448
0.330988
0.280923
0.194412
0.0530461
-0.138273
-0.33879
-0.481193
-0.503469
-0.380668
-0.137064
0.159932
0.420986
0.567962
0.561556
0.409145
0.157546
-0.122435
-0.359029
-0.503527
-0.543314
-0.499431
-0.413151
-0.328601
-0.278376
-0.276658
-0.319609
-0.390149
-0.464957
-0.522252
-0.548117
-0.538978
-0.499614
-0.438225
-0.361224
-0.270282
-0.163317
-0.0392654
0.0961766
0.228372
0.33812
0.410879
0.445135
0.453752
0.454859
0.455394
0.437785
0.361806
0.189669
-0.0710306
-0.34366
-0.515841
-0.501326
-0.283168
0.0645328
0.397289
0.574893
0.525126
0.264307
-0.3527
-0.598899
-0.589108
-0.330373
0.0673604
0.428852
0.599052
0.509349
0.197667
-0.198467
-0.498785
-0.570911
-0.386239
-0.0303368
0.328439
0.523449
0.473804
0.211737
-0.141527
-0.442722
-0.603823
-0.620154
-0.543888
-0.441602
-0.36253
-0.325944
-0.325772
-0.343858
-0.362728
-0.372537
-0.371564
-0.363068
-0.351911
-0.342765
-0.339779
-0.346701
-0.366608
-0.400926
-0.447844
-0.500494
-0.545524
-0.563166
-0.530086
-0.425845
-0.242606
0.0042806
0.270478
0.489207
0.591462
0.530739
0.304245
-0.0316169
-0.365665
-0.572369
-0.566609
-0.339241
0.0278741
0.380635
0.564467
0.500178
0.214507
-0.165729
-0.467712
-0.564677
-0.428024
-0.122175
0.224364
0.480222
0.577736
0.519832
0.345756
0.110565
-0.127549
-0.325909
-0.459708
-0.507387
-0.448903
-0.282391
-0.0369712
0.23022
0.448463
0.554688
0.515233
0.338373
0.0729271
-0.206449
-0.423975
-0.527812
-0.504125
-0.376734
-0.195145
-0.0153648
0.118522
0.183251
0.174623
0.101553
-0.0184606
-0.162398
-0.305877
-0.428752
-0.519485
-0.575647
-0.600489
-0.597912
-0.568844
-0.511285
-0.424233
-0.312846
-0.190085
-0.0714855
0.03473
0.134482
0.243596
0.370911
0.498484
0.57581
0.536833
0.337544
0.00638927
-0.33419
-0.52591
-0.467875
-0.170712
0.233138
0.548298
0.627871
0.435418
0.0513364
-0.536868
-0.681177
-0.525212
-0.138758
0.302351
0.597254
0.623909
0.377588
-0.0318311
-0.416122
-0.602363
-0.514512
-0.196339
0.202401
0.492343
0.543617
0.34155
-0.0144495
-0.36028
-0.558403
-0.564639
-0.424607
-0.227706
-0.0558473
0.0489023
0.0866741
0.0821956
0.0643544
0.0528235
0.0542958
0.0660777
0.0821001
0.0970472
0.107287
0.109783
0.100762
0.0751924
0.0273246
-0.0477506
-0.151407
-0.277689
-0.409483
-0.517238
-0.563181
-0.511889
-0.345443
-0.0795983
0.227141
0.484318
0.60174
0.524983
0.261348
-0.10574
-0.435125
-0.589975
-0.500416
-0.194906
0.19703
0.495426
0.563228
0.36848
-0.00228621
-0.374274
-0.573761
-0.514346
-0.222024
0.175291
0.503267
0.635436
0.537766
0.254716
-0.108402
-0.424714
-0.607534
-0.629597
-0.50022
-0.254465
0.0453604
0.323911
0.515422
0.575973
0.489715
0.276276
-0.00837916
-0.286402
-0.483199
-0.55008
-0.476045
-0.288399
-0.0425803
0.198445
0.387034
0.502487
0.546562
0.530816
0.466767
0.363664
0.231353
0.0827661
-0.0672743
-0.205931
-0.325387
-0.422629
-0.496529
-0.544962
-0.564672
-0.554407
-0.518767
-0.468209
-0.412363
-0.349567
-0.261247
-0.120021
0.0862742
0.326487
0.520187
0.569082
0.410928
0.0762965
-0.289125
-0.493974
-0.419288
-0.0887498
0.328615
0.607527
0.601081
0.303532
-0.149153
-0.622775
-0.665102
-0.396338
0.0591488
0.480629
0.671288
0.555052
0.189713
-0.253542
-0.565333
-0.608903
-0.372952
0.0300812
0.406517
0.580318
0.479557
0.15936
-0.222759
-0.487144
-0.530762
-0.364988
-0.086626
0.184701
0.369337
0.451396
0.46019
0.438857
0.421167
0.421673
0.437956
0.459817
0.478205
0.489228
0.493234
0.491718
0.484555
0.468509
0.436775
0.379308
0.28452
0.143634
-0.0417855
-0.251468
-0.443242
-0.560865
-0.55233
-0.392443
-0.103917
0.233424
0.503234
0.60045
0.475754
0.162228
-0.219746
-0.505945
-0.569032
-0.376674
-0.0106335
0.357267
0.550446
0.478534
0.174922
-0.213067
-0.493231
-0.531233
-0.309063
0.0679643
0.414789
0.567196
0.458434
0.132195
-0.273332
-0.589868
-0.70954
-0.611069
-0.33547
0.028178
0.365213
0.581234
0.629762
0.50866
0.254261
-0.061839
-0.350793
-0.53594
-0.573778
-0.460841
-0.232695
0.0459083
0.303745
0.490371
0.591196
0.622824
0.615347
0.594006
0.569398
0.538379
0.491881
0.423371
0.333008
0.226495
0.1114
-0.00532267
-0.117191
-0.21721
-0.298891
-0.36002
-0.406088
-0.448339
-0.493991
-0.53317
-0.53295
-0.447527
-0.246551
0.0468786
0.337728
0.494009
0.421729
0.134205
-0.223385
-0.44293
-0.385235
-0.068206
0.330466
0.57502
0.517945
0.172762
-0.288275
-0.589255
-0.550674
-0.224489
0.22794
0.572657
0.640353
0.40352
-0.0241977
-0.432928
-0.626218
-0.520736
-0.170341
0.255519
0.550349
0.580461
0.340288
-0.0495061
-0.394123
-0.530465
-0.409116
-0.101877
0.247439
0.508185
0.627865
0.630675
0.576599
0.522706
0.500973
0.514086
0.545622
0.57566
0.592208
0.594069
0.587252
0.579574
0.576739
0.580395
0.587008
0.586504
0.561326
0.488388
0.34666
0.130747
-0.134509
-0.389557
-0.555421
-0.564052
-0.389353
-0.0706694
0.283973
0.535503
0.577393
0.382673
0.0240178
-0.342105
-0.547737
-0.498573
-0.215686
0.167126
0.462323
0.528988
0.340116
-0.00738891
-0.335661
-0.480323
-0.375624
-0.083721
0.233487
0.402246
0.330147
0.0464763
-0.309926
-0.565198
-0.607612
-0.422372
-0.0777681
0.298423
0.571361
0.658777
0.546642
0.276051
-0.0682219
-0.380312
-0.571361
-0.595916
-0.456149
-0.197504
0.102431
0.359683
0.515766
0.556421
0.50932
0.425641
0.355688
0.33024
0.354439
0.412698
0.479423
0.530465
0.550711
0.535463
0.487338
0.41278
0.3207
0.222068
0.127287
0.0403153
-0.0465098
-0.150172
-0.283625
-0.436601
-0.564761
-0.600469
-0.485533
-0.2163
0.121389
0.373464
0.405997
0.196265
-0.133757
-0.376678
-0.372844
-0.115153
0.238798
0.461735
0.403826
0.0805311
-0.329623
-0.431605
-0.350034
-0.0386508
0.334234
0.556712
0.501848
0.188006
-0.231447
-0.542457
-0.590168
-0.35129
0.0609056
0.443836
0.61271
0.492914
0.144894
-0.258215
-0.51506
-0.506318
-0.245337
0.137767
0.469736
0.636615
0.629417
0.513875
0.376748
0.282959
0.255397
0.279489
0.322976
0.356939
0.367959
0.3586
0.340497
0.326753
0.327761
0.350312
0.397166
0.464406
0.536732
0.584469
0.567702
0.450362
0.221956
-0.081997
-0.377658
-0.561152
-0.553919
-0.340074
0.0128821
0.365299
0.565841
0.524679
0.25329
-0.130652
-0.447972
-0.550461
-0.392961
-0.0514189
0.307111
0.509083
0.465707
0.209412
-0.124933
-0.36835
-0.409735
-0.251967
-0.00512155
0.178361
0.192024
0.0333781
-0.195439
-0.349861
-0.329708
-0.125622
0.182708
0.463463
0.598907
0.536558
0.296216
-0.0432395
-0.368499
-0.575069
-0.604905
-0.456384
-0.178869
0.139931
0.402347
0.537116
0.522006
0.385518
0.19177
0.0129108
-0.0983064
-0.120497
-0.0596026
0.060939
0.209737
0.356173
0.477137
0.559539
0.598987
0.597748
0.564145
0.511956
0.456145
0.403667
0.344373
0.251094
0.0947927
-0.128407
-0.373885
-0.552598
-0.570939
-0.387012
-0.058275
0.259003
0.394435
0.27668
-0.0144615
-0.289436
-0.370971
-0.211835
0.075046
0.290486
0.283632
0.0513786
-0.255862
-0.178332
-0.102715
0.118773
0.347257
0.422969
0.269854
-0.0567698
-0.393471
-0.559212
-0.457919
-0.125443
0.281766
0.562825
0.581962
0.32888
-0.0770057
-0.43476
-0.569777
-0.422954
-0.0707894
0.311846
0.550786
0.570736
0.410575
0.174744
-0.03057
-0.145573
-0.167849
-0.13255
-0.084179
-0.054655
-0.0539907
-0.0740701
-0.0993623
-0.115968
-0.114223
-0.0860958
-0.0224664
0.0846458
0.233269
0.400305
0.537507
0.582948
0.486664
0.241106
-0.0964245
-0.410795
-0.576829
-0.518243
-0.244701
0.137549
0.460774
0.578838
0.43699
0.0954416
-0.287398
-0.529222
-0.519904
-0.268029
0.105027
0.419106
0.530506
0.401136
0.105079
-0.210343
-0.400407
-0.40064
-0.251238
-0.0593932
0.0684117
0.0861242
0.0302187
-0.0115113
0.0345467
0.176814
0.352071
0.462859
0.433893
0.249273
-0.0418956
-0.343045
-0.548705
-0.587966
-0.446643
-0.167808
0.160071
0.432006
0.565641
0.527541
0.339042
0.0669224
-0.203097
-0.402717
-0.502407
-0.506291
-0.434818
-0.311742
-0.159009
0.00413521
0.160786
0.295989
0.397546
0.459077
0.484406
0.489293
0.495627
0.517114
0.543559
0.536389
0.443765
0.233271
-0.0698039
-0.367183
-0.52659
-0.458155
-0.178915
0.170377
0.394969
0.372486
0.129113
-0.178082
-0.361006
-0.324495
-0.120689
0.0961072
0.178826
0.0886227
-0.0815117
0.10267
0.124916
0.201349
0.252318
0.189565
-0.010563
-0.275387
-0.46806
-0.468049
-0.244244
0.11796
0.44907
0.585619
0.455498
0.110521
-0.287972
-0.545627
-0.540858
-0.280195
0.104881
0.41993
0.51924
0.379041
0.0873662
-0.219058
-0.433253
-0.521744
-0.512855
-0.460589
-0.41365
-0.397619
-0.411994
-0.440432
-0.465761
-0.479358
-0.48018
-0.466393
-0.426941
-0.340539
-0.186097
0.0375142
0.29291
0.504308
0.585073
0.478856
0.195281
-0.173233
-0.478303
-0.586659
-0.443648
-0.101024
0.290861
0.5497
0.556236
0.305419
-0.0893588
-0.439656
-0.580473
-0.451033
-0.113031
0.273545
0.526921
0.539718
0.318728
-0.0291042
-0.344498
-0.498825
-0.456601
-0.269474
-0.0327345
0.1631
0.276569
0.326293
0.353494
0.374364
0.366052
0.289534
0.124083
-0.110505
-0.353005
-0.521959
-0.55044
-0.414925
-0.146683
0.1746
0.447021
0.584861
0.547141
0.347127
0.0482379
-0.257788
-0.491077
-0.616654
-0.646042
-0.614438
-0.555784
-0.488749
-0.415148
-0.327831
-0.222615
-0.106645
0.002346
0.0859395
0.138588
0.175771
0.228605
0.32361
0.456827
0.580416
0.616986
0.498691
0.216416
-0.143061
-0.418682
-0.467809
-0.258411
0.097005
0.393672
0.464028
0.278032
-0.049248
-0.328859
-0.418322
-0.303302
-0.0844066
0.10088
0.169812
0.14139
0.333302
0.271101
0.184706
0.0687539
-0.0879735
-0.267143
-0.406082
-0.423633
-0.272955
0.0153049
0.328803
0.522543
0.49565
0.24397
-0.128533
-0.448607
-0.563086
-0.417481
-0.0813107
0.277098
0.476075
0.421786
0.149246
-0.207676
-0.499188
-0.644431
-0.651759
-0.581722
-0.502155
-0.458465
-0.461763
-0.494525
-0.529059
-0.547368
-0.550441
-0.552726
-0.566599
-0.586501
-0.582473
-0.509046
-0.32936
-0.0470685
0.272641
0.518443
0.584843
0.425422
0.0852762
-0.298409
-0.553823
-0.562722
-0.313556
0.0867309
0.449545
0.602338
0.473703
0.11906
-0.294975
-0.568504
-0.57545
-0.313468
0.0973911
0.46142
0.611536
0.488369
0.150384
-0.248595
-0.530658
-0.589861
-0.424145
-0.113002
0.21677
0.452141
0.548769
0.522041
0.404141
0.222842
0.00408354
-0.221434
-0.414184
-0.527167
-0.518157
-0.370168
-0.108369
0.198613
0.459126
0.59234
0.555926
0.358582
0.0603782
-0.24439
-0.466237
-0.560764
-0.541776
-0.462962
-0.385766
-0.352499
-0.372837
-0.424224
-0.466958
-0.469002
-0.424917
-0.356422
-0.295544
-0.260516
-0.23868
-0.18871
-0.0646278
0.147316
0.399142
0.587841
0.605339
0.402245
0.0393854
-0.311603
-0.461843
-0.326941
0.0174724
0.37006
0.527974
0.408749
0.0822532
-0.272154
-0.472602
-0.441706
-0.226834
0.0478802
0.257245
0.345035
0.469738
0.314801
0.0846313
-0.150887
-0.336156
-0.432331
-0.410318
-0.259232
-0.00765863
0.267146
0.458899
0.477791
0.297363
-0.0217193
-0.345488
-0.525662
-0.474142
-0.20734
0.152577
0.429388
0.485509
0.292908
-0.0544111
-0.392108
-0.585525
-0.599313
-0.487072
-0.338253
-0.228495
-0.192246
-0.219886
-0.27333
-0.311852
-0.316334
-0.298845
-0.292833
-0.330635
-0.420145
-0.53111
-0.599317
-0.552045
-0.347846
-0.0152943
0.336621
0.563407
0.560073
0.313158
-0.0801525
-0.4407
-0.598013
-0.475623
-0.12302
0.294833
0.574112
0.581724
0.310706
-0.11499
-0.487593
-0.62733
-0.469025
-0.0825071
0.347678
0.613668
0.596431
0.305688
-0.125434
-0.492878
-0.63531
-0.505693
-0.168992
0.224527
0.511996
0.606082
0.509412
0.276833
-0.0138292
-0.283923
-0.474926
-0.553586
-0.505006
-0.332417
-0.0667494
0.229061
0.474025
0.595979
0.555036
0.35716
0.0592523
-0.242849
-0.45042
-0.504502
-0.409396
-0.226472
-0.0422561
0.0697773
0.0713197
-0.0345184
-0.203989
-0.36881
-0.471733
-0.497617
-0.475738
-0.455052
-0.468993
-0.509066
-0.523127
-0.441362
-0.220695
0.107921
0.425637
0.58101
0.479682
0.15077
-0.238337
-0.466761
-0.402351
-0.0800641
0.313499
0.551305
0.504979
0.200917
-0.199102
-0.485859
-0.528045
-0.326156
0.00986658
0.32011
0.483715
0.518237
0.280875
-0.0530784
-0.347957
-0.502509
-0.479168
-0.295265
-0.0141539
0.269296
0.458027
0.481627
0.320938
0.0262492
-0.29031
-0.497463
-0.501492
-0.289325
0.0552951
0.378849
0.53105
0.438955
0.143492
-0.212006
-0.457825
-0.498339
-0.352032
-0.117265
0.094234
0.21222
0.224595
0.164887
0.0895252
0.0499299
0.0659922
0.115933
0.149349
0.113903
-0.0182266
-0.229817
-0.45079
-0.57856
-0.52593
-0.272412
0.104045
0.445996
0.596825
0.48104
0.140144
-0.271274
-0.554331
-0.572678
-0.313188
0.104971
0.47594
0.617751
0.461607
0.0770131
-0.348321
-0.602066
-0.561929
-0.244036
0.198863
0.54489
0.628711
0.415198
0.00794206
-0.388802
-0.583016
-0.496385
-0.183198
0.197271
0.462855
0.511098
0.348251
0.056499
-0.249388
-0.469314
-0.550547
-0.48634
-0.299212
-0.0328329
0.250064
0.477642
0.587635
0.544183
0.349391
0.0520496
-0.256783
-0.473587
-0.523733
-0.390523
-0.12432
0.176362
0.412149
0.522066
0.487671
0.325818
0.0915876
-0.131325
-0.271864
-0.313768
-0.300096
-0.300598
-0.366012
-0.492859
-0.616687
-0.640476
-0.48653
-0.155835
0.234652
0.49742
0.490544
0.208174
-0.195621
-0.48245
-0.482107
-0.1902
0.229409
0.536441
0.563579
0.297636
-0.121471
-0.469397
-0.572025
-0.390837
-0.022312
0.348738
0.552057
0.515376
0.21571
-0.180923
-0.488025
-0.579314
-0.431313
-0.111906
0.245155
0.498568
0.55859
0.405511
0.0939786
-0.255555
-0.504781
-0.555428
-0.381731
-0.0456202
0.315075
0.54643
0.55011
0.323677
-0.0289985
-0.334796
-0.445416
-0.318864
-0.0303309
0.282186
0.501929
0.583714
0.545953
0.443056
0.343235
0.303648
0.343911
0.435981
0.51913
0.527338
0.412519
0.165527
-0.16005
-0.447897
-0.569171
-0.451617
-0.125568
0.269977
0.548533
0.576625
0.334753
-0.0696934
-0.440545
-0.596209
-0.461483
-0.0973125
0.317787
0.575958
0.55214
0.256435
-0.166359
-0.500747
-0.580658
-0.369097
0.0272459
0.402718
0.568721
0.453207
0.126056
-0.232124
-0.430996
-0.381417
-0.131324
0.166574
0.343463
0.313433
0.104381
-0.176858
-0.405611
-0.497677
-0.433485
-0.24465
0.0108241
0.266851
0.461696
0.548238
0.500988
0.321229
0.0446099
-0.255735
-0.486366
-0.56741
-0.461272
-0.189681
0.163696
0.486303
0.694061
0.757036
0.681942
0.498068
0.265574
0.0700952
-0.0205688
-0.00244868
0.0615909
0.0815824
-0.00907748
-0.214974
-0.462277
-0.623641
-0.583205
-0.309177
0.095119
0.421348
0.485954
0.247174
-0.160456
-0.492669
-0.55121
-0.296726
0.133741
0.496463
0.592122
0.371908
-0.0476166
-0.436799
-0.589022
-0.433279
-0.0531123
0.350816
0.57255
0.499577
0.160017
-0.270201
-0.568502
-0.595305
-0.343985
0.069936
0.454663
0.64481
0.572552
0.269926
-0.139358
-0.482538
-0.623747
-0.513726
-0.195293
0.203017
0.514875
0.615914
0.470153
0.141228
-0.218853
-0.435041
-0.402804
-0.139067
0.230282
0.546113
0.710044
0.712916
0.601379
0.444762
0.316922
0.275193
0.337464
0.474203
0.622404
0.709935
0.673816
0.476233
0.135991
-0.244342
-0.511064
-0.543398
-0.318097
0.0683502
0.431507
0.595491
0.481443
0.138305
-0.270079
-0.542261
-0.548009
-0.285337
0.11742
0.457329
0.567343
0.398043
0.0364247
-0.330454