# vtk DataFile Version 3.0
PFC-RG simulation results
ASCII
DATASET STRUCTURED_POINTS
DIMENSIONS 64 64 1
ORIGIN 0 0 0
SPACING 1 1 1
POINT_DATA 4096
SCALARS psi double
LOOKUP_TABLE default
0.490451
0.534601
0.507502
0.440637
0.469122
0.537906
0.533122
0.491512
0.501264
0.537318
0.532401
0.501092
0.51613
0.562654
0.54955
0.481867
0.48528
0.583092
0.599335
0.480454
0.427375
0.552296
0.636186
0.524684
0.424834
0.513958
0.62486
0.554322
0.429485
0.461588
0.582538
0.596967
0.514194
0.479827
0.511992
0.525735
0.495085
0.461529
0.456436
0.471811
0.510582
0.551858
0.432442
0.116948
-0.00991154
0.27873
0.575392
0.550236
0.495845
0.610116
0.485374
-0.0488025
-0.343052
0.0469313
0.557584
0.611557
0.507801
0.588371
0.500825
0.0234026
-0.299222
-0.0262529
0.454265
0.618235
-0.00621489
0.0642539
0.325009
0.531916
0.441693
0.13112
0.0249592
0.308176
0.567304
0.39119
0.0474505
0.0749552
0.43358
0.559217
0.253598
-0.00997425
0.170416
0.504859
0.467917
0.138523
0.0405627
0.299168
0.476697
0.341149
0.185731
0.21979
0.284961
0.276355
0.328459
0.416345
0.31832
0.117081
0.166057
0.434735
0.470086
0.194404
0.0946375
0.383698
0.593795
0.34615
0.0261107
0.147959
0.441176
0.376072
0.176642
0.289199
0.455489
0.323305
0.210916
0.405444
0.489399
0.156688
-0.0770838
0.205283
0.51055
0.368694
0.183013
0.358882
0.510553
0.268131
0.0055859
0.137252
0.427253
0.464213
-0.328243
-0.265808
0.117629
0.444445
0.291545
-0.200329
-0.348897
0.094096
0.466793
0.176103
-0.331709
-0.25849
0.278088
0.43108
-0.0316894
-0.374967
-0.0732848
0.380545
0.275989
-0.190459
-0.280326
0.103686
0.333
0.112855
-0.135328
-0.0966221
0.0358174
0.0845394
0.147883
0.178173
-0.0283472
-0.27756
-0.129085
0.288764
0.337518
-0.0597071
-0.204606
0.205338
0.487208
0.100296
-0.372999
-0.167314
0.394799
0.559635
0.431958
0.46002
0.397654
-0.0358942
-0.313885
0.0274881
0.501878
0.542701
0.437707
0.54975
0.492896
-0.00813851
-0.345541
-0.0126821
0.504763
0.595769
0.440822
0.43233
0.465104
0.282053
0.0127372
0.0446363
0.294221
0.517163
0.430406
0.103939
0.00398249
0.321556
0.586911
0.366063
-0.00580555
0.0620428
0.46365
0.564564
0.215695
-0.0188027
0.22592
0.551898
0.447217
0.101265
0.0679828
0.371927
0.518182
0.317602
0.133407
0.197396
0.317906
0.337069
0.349574
0.344381
0.177211
0.00425096
0.156189
0.501944
0.50794
0.106632
-0.0846866
0.254522
0.535782
0.250889
-0.106118
0.0873919
0.484907
0.480218
0.322814
0.451869
0.49989
0.0941715
-0.21999
0.079859
0.515053
0.506793
0.369529
0.504241
0.51533
0.0770227
-0.237816
0.066836
0.496538
0.477393
0.293001
0.370866
0.509859
0.397734
0.426668
0.516474
0.511544
0.444068
0.462591
0.526316
0.536453
0.519905
0.523593
0.523813
0.513012
0.517816
0.531638
0.526081
0.512662
0.522251
0.539506
0.530412
0.505381
0.513897
0.551745
0.552215
0.499807
0.480693
0.547097
0.58612
0.509854
0.435969
0.507437
0.602857
0.528369
0.393809
0.44539
0.621458
0.586232
0.271774
0.0950784
0.34015
0.615693
0.534298
0.403204
0.533255
0.539453
0.117087
-0.179288
0.143396
0.567971
0.510271
0.33465
0.475696
0.518262
0.10232
-0.205182
0.103845
0.52259
0.483657
0.338383
0.484088
0.502305
0.0786609
-0.211495
0.0811084
0.477777
0.506892
0.267739
0.545927
0.369257
-0.013087
0.0512058
0.473253
0.583642
0.225062
-0.0303606
0.209585
0.570782
0.495887
0.100275
-0.00443702
0.343224
0.598184
0.357723
-0.00288009
0.0769958
0.468017
0.557366
0.209102
-0.0400661
0.181133
0.526434
0.475994
0.122587
-0.0138023
0.239913
0.495977
0.424616
0.194336
0.127061
0.249853
0.314521
0.19078
0.117374
0.312079
0.498026
0.422295
0.38428
0.560802
0.497476
-0.0251388
-0.351255
0.0182985
0.528498
0.566166
0.455643
0.580064
0.518858
-0.0160527
-0.369449
-0.0106556
0.509133
0.566442
0.470989
0.588284
0.50711
-0.000219245
-0.266115
0.0897925
0.403263
0.239266
-0.0538839
0.397568
0.206267
-0.309049
-0.247176
0.310102
0.455731
-0.0517466
-0.416763
-0.0684753
0.455601
0.343211
-0.231161
-0.37206
0.140153
0.500553
0.142069
-0.368305
-0.229963
0.331273
0.431097
-0.0755654
-0.390159
-0.0406231
0.413742
0.286617
-0.194436
-0.312303
0.0616136
0.367361
0.219647
-0.1281
-0.249652
-0.0544037
0.194933
0.255457
0.253889
0.371562
0.356511
0.0423798
-0.10689
0.210826
0.490581
0.316204
0.131527
0.342152
0.4874
0.176632
-0.0611782
0.226171
0.525466
0.350107
0.150109
0.357602
0.504574
0.192538
-0.0489347
0.221831
0.495428
0.341738
0.230716
0.450771
0.410169
-0.0937244
0.114875
0.510118
0.388039
0.00448491
0.0568472
0.471405
0.574429
0.20265
-0.0588209
0.195702
0.572495
0.490827
0.0809428
-0.0148297
0.35526
0.611163
0.352261
-0.0071654
0.101258
0.500634
0.56092
0.201943
0.00109564
0.260992
0.560655
0.44858
0.129279
0.0841826
0.347447
0.529141
0.388768
0.106429
0.00388786
0.200815
0.469714
0.514
0.441113
0.481692
0.389734
-0.0463558
-0.312921
0.0331993
0.522021
0.595503
0.513363
0.609108
0.49846
-0.059887
-0.40435
-0.0221865
0.526819
0.61129
0.519701
0.61787
0.512791
-0.0425287
-0.389288
-0.0290844
0.486782
0.571099
0.519843
0.631501
0.506387
0.0343057
0.46355
0.568403
0.540516
0.460537
0.482267
0.540876
0.536866
0.505925
0.507319
0.523453
0.523201
0.515227
0.515785
0.522142
0.524305
0.519989
0.516316
0.522664
0.530698
0.522767
0.507524
0.516981
0.545504
0.540106
0.498512
0.494001
0.548959
0.567776
0.512497
0.490021
0.536071
0.527934
0.45496
0.488461
0.566452
0.435323
0.247202
0.339675
0.481378
0.291262
0.089395
0.284183
0.506944
0.338307
0.159529
0.363445
0.516529
0.221908
-0.0249623
0.2336
0.518598
0.345695
0.14041
0.341655
0.514208
0.242458
-0.00322403
0.230754
0.509651
0.365625
0.151883
0.288033
0.49498
0.453319
0.330027
0.163308
0.277146
0.509158
0.471596
0.140366
0.0108186
0.324939
0.60436
0.386946
0.00154351
0.0614241
0.475582
0.586814
0.217355
-0.0501872
0.204102
0.578009
0.481097
0.0629286
-0.0221683
0.358968
0.60482
0.321302
-0.0486675
0.0804567
0.501864
0.537163
0.13962
-0.0400241
0.263656
0.543409
0.44726
0.270165
0.191749
0.0115763
-0.143647
0.0869766
0.486147
0.578657
0.510122
0.580103
0.473587
-0.0384076
-0.362633
-0.00702271
0.514241
0.586005
0.484193
0.588142
0.516529
-0.0153082
-0.381793
-0.0393779
0.50619
0.60421
0.487899
0.564291
0.543461
0.110675
-0.301306
-0.161296
0.330355
0.616375
-0.0734879
-0.255366
0.0252978
0.426911
0.347965
-0.173793
-0.369219
0.0940542
0.502732
0.195392
-0.352017
-0.267126
0.319774
0.477572
-0.0443801
-0.419877
-0.0570967
0.469322
0.328841
-0.255325
-0.36203
0.174175
0.502679
0.102134
-0.389313
-0.19052
0.371861
0.389608
-0.150785
-0.367073
0.0566182
0.423351
0.269182
0.00621319
-0.0355302
-0.0567566
-0.0626999
0.170965
0.430498
0.385841
0.299924
0.465463
0.493307
0.0869948
-0.201579
0.103834
0.511379
0.46637
0.312806
0.46647
0.520943
0.112141
-0.209881
0.0808298
0.512102
0.482937
0.287749
0.39888
0.529833
0.256072
-0.127335
-0.0893422
0.296781
0.510496
-0.0721651
-0.0694658
0.243159
0.559421
0.497912
0.12032
-0.0250903
0.304271
0.603295
0.391957
0.00322201
0.060822
0.476255
0.58951
0.222786
-0.0400519
0.21653
0.585966
0.48673
0.0798771
0.0106594
0.387938
0.613627
0.330837
-0.00537168
0.143593
0.531774
0.528449
0.153834
0.0305866
0.32782
0.523193
0.356656
0.207577
0.286521
0.371316
0.418705
0.511003
0.398865
-0.0321443
-0.252792
0.108396
0.53673
0.513271
0.381052
0.51899
0.517556
0.056049
-0.274276
0.0485851
0.518151
0.525503
0.379403
0.507335
0.532263
0.0878636
-0.288728
-0.026434
0.478018
0.577166
0.381301
0.350224
0.485042
0.469541
0.290675
0.419428
0.505605
0.492497
0.494179
0.52009
0.519939
0.510759
0.517266
0.524436
0.522105
0.519241
0.518804
0.518053
0.52017
0.524621
0.522736
0.515766
0.516043
0.524808
0.528358
0.521733
0.515835
0.51778
0.525492
0.531143
0.521808
0.499023
0.504226
0.552311
0.552018
0.439827
0.366084
0.483244
0.605076
0.534807
0.479105
0.568848
0.441296
-0.0481984
-0.307387
0.0675625
0.537887
0.553167
0.439934
0.56632
0.522104
0.0101994
-0.343472
-0.00198255
0.513363
0.565954
0.441381
0.553276
0.531688
0.0500006
-0.317662
-0.0278415
0.461174
0.531428
0.391564
0.459232
0.57782
0.477831
0.449272
0.586751
0.353903
-0.0321229
0.0242843
0.455209
0.599967
0.248493
-0.0418385
0.181808
0.567611
0.507716
0.0924353
-0.0245448
0.343521
0.614127
0.355227
-0.0249111
0.0762831
0.497092
0.568285
0.177836
-0.0549556
0.233319
0.581705
0.443052
0.0388631
-0.0067514
0.365431
0.577921
0.302831
-0.0533445
0.0406565
0.437034
0.502734
0.122586
-0.0826063
0.218469
0.511576
0.376086
0.221699
0.416632
0.513288
0.152486
-0.122523
0.165549
0.518668
0.405038
0.217849
0.398537
0.518603
0.172282
-0.120256
0.146809
0.505953
0.421289
0.254173
0.414139
0.487519
0.137973
-0.105237
0.160089
0.447227
0.350827
0.288208
0.507978
0.193215
-0.339418
-0.278399
0.296244
0.488441
-0.00304399
-0.410452
-0.0960866
0.449272
0.367813
-0.215487
-0.379691
0.137507
0.516586
0.153775
-0.375657
-0.230405
0.358143
0.454929
-0.0915818
-0.413866
-0.00653694
0.482692
0.289204
-0.272711
-0.330412
0.184236
0.465386
0.101739
-0.311407
-0.119048
0.378829
0.38284
-0.160301
-0.441405
-0.0185295
0.527471
0.599932
0.495371
0.59222
0.50757
-0.0393405
-0.40761
-0.0474545
0.512967
0.613098
0.514191
0.609493
0.524558
-0.0259789
-0.402846
-0.0557467
0.493478
0.601148
0.525709
0.618982
0.501329
-0.0217445
-0.283677
0.0697717
0.367626
0.182599
0.139973
0.504438
0.405347
0.0518357
0.0805545
0.464519
0.584091
0.23942
-0.0357485
0.188349
0.566517
0.508432
0.103091
-0.0101002
0.351231
0.615739
0.362446
-0.00577904
0.0979126
0.509019
0.575041
0.194384
-0.0271658
0.258029
0.597989
0.466056
0.0809393
0.0406582
0.393235
0.594603
0.358639
0.0716669
0.177045
0.504587
0.527706
0.164647
-0.0440995
0.229461
0.502265
0.309797
0.0762655
0.282546
0.509811
0.282923
0.0390109
0.26295
0.515212
0.307334
0.0727878
0.288975
0.516522
0.285513
0.0466062
0.271688
0.509885
0.294421
0.0695567
0.279644
0.484183
0.291719
0.161541
0.397689
0.474139
0.153818
0.16674
0.438647
0.551719
0.535275
0.53291
0.533865
0.507145
0.498965
0.522772
0.530831
0.51415
0.508789
0.521474
0.527073
0.518742
0.513184
0.51884
0.526166
0.524057
0.514705
0.511352
0.521017
0.530577
0.522176
0.505712
0.510503
0.533637
0.535109
0.514117
0.521587
0.549926
0.518399
0.436893
0.438341
0.52392
0.529098
0.496972
0.571588
0.480046
-0.0131196
-0.367162
-0.0426971
0.501189
0.610306
0.510761
0.600171
0.523299
-0.0185028
-0.400666
-0.0554256
0.505155
0.61023
0.510572
0.605761
0.528772
-0.0117817
-0.392552
-0.0650271
0.476352
0.602364
0.52994
0.598415
0.554647
0.269625
0.253957
0.158858
0.264209
0.500644
0.492424
0.153292
-0.0167901
0.289983
0.602079
0.400826
-0.00242421
0.0442935
0.468754
0.589427
0.213992
-0.0569419
0.207325
0.584987
0.475203
0.0502615
-0.0191167
0.37596
0.610624
0.311505
-0.0536921
0.0877567
0.510471
0.547442
0.151884
-0.0389784
0.253621
0.518036
0.339125
0.0657119
0.117778
0.305995
0.386533
0.469218
0.456772
0.133808
-0.120193
0.134219
0.494716
0.430297
0.26285
0.424302
0.521606
0.156633
-0.15089
0.12483
0.512692
0.435971
0.248184
0.410218
0.524474
0.177136
-0.132985
0.120347
0.510926
0.462722
0.229376
0.274822
0.453073
0.44604
0.284073
-0.0164307
0.0221937
0.328633
0.335664
-0.116255
-0.345976
0.073378
0.495585
0.212631
-0.34277
-0.273328
0.316278
0.480107
-0.0452446
-0.420777
-0.0490298
0.477738
0.323762
-0.265394
-0.357044
0.192209
0.513581
0.0999233
-0.396064
-0.194512
0.382714
0.423954
-0.12858
-0.40351
0.00129519
0.429116
0.28821
-0.0779311
-0.168876
-0.113911
-0.088413
0.116614
0.439115
0.510993
0.44706
0.545752
0.500773
0.0288712
-0.310861
0.0105067
0.508369
0.55249
0.422765
0.542283
0.532484
0.0458086
-0.326571
-0.0111683
0.506469
0.567498
0.42641
0.525477
0.549084
0.128872
-0.29218
-0.151538
0.332302
0.588183
0.203603
0.168051
0.274079
0.472638
0.480051
0.185761
0.0236123
0.303767
0.597651
0.403807
0.0153148
0.0637842
0.477479
0.590726
0.221484
-0.0393167
0.222604
0.589431
0.481891
0.0756093
0.0153546
0.394776
0.614525
0.330903
-0.0049618
0.137749
0.531848
0.551895
0.166658
-0.0188758
0.264561
0.562511
0.484796
0.248618
0.118297
-0.00262778
-0.0912002
0.108136
0.44963
0.522857
0.453186
0.551031
0.509803
0.0406405
-0.300395
0.0158874
0.506175
0.54169
0.406158
0.529067
0.532919
0.061661
-0.303389
0.0063196
0.504867
0.542409
0.390698
0.496943
0.534407
0.138073
-0.235287
-0.0584527
0.376875
0.534929
0.0261377
0.419325
0.58124
0.510698
0.491523
0.537169
0.535815
0.508599
0.513818
0.5305
0.527474
0.518188
0.517463
0.519714
0.522035
0.524547
0.520699
0.512535
0.514997
0.52808
0.529514
0.51348
0.505588
0.520004
0.533603
0.524704
0.505608
0.497146
0.508729
0.53286
0.525074
0.455445
0.413169
0.491724
0.554842
0.443833
0.340561
0.448284
0.482142
0.152924
-0.118444
0.135416
0.506273
0.447644
0.277541
0.434016
0.526166
0.150095
-0.172709
0.101017
0.508747
0.457239
0.281103
0.435716
0.522949
0.141675
-0.179264
0.0903046
0.494048
0.466674
0.307785
0.417619
0.477277
0.215883
-0.0113248
0.47602
0.457624
0.0562427
0.0313971
0.431736
0.582032
0.238894
-0.0394214
0.193369
0.571368
0.498096
0.084759
-0.0192169
0.352882
0.613469
0.345153
-0.0310845
0.0816632
0.504675
0.562448
0.159647
-0.0657834
0.239877
0.586501
0.424756
0.00903047
-0.0224344
0.36628
0.58307
0.29973
-0.099648
-0.0799426
0.324635
0.587437
0.486634
0.404217
0.557191
0.510498
-0.00554716
-0.387026
-0.0628475
0.497094
0.611803
0.5042
0.595567
0.53807
0.00607569
-0.392557
-0.065682
0.495722
0.606043
0.503796
0.599738
0.52939
-0.00557664
-0.373253
-0.0326841
0.48405
0.559371
0.485953
0.598196
0.482731
-0.0394155
0.276856
0.53557
0.254009
-0.314291
-0.295317
0.27631
0.473508
-0.0187412
-0.413015
-0.0826365
0.454012
0.352283
-0.229385
-0.374179
0.148927
0.51354
0.139901
-0.380943
-0.2224
0.362702
0.442731
-0.108438
-0.414403
0.00396399
0.476478
0.260465
-0.295176
-0.33291
0.181424
0.455827
0.0923291
-0.364232
-0.263502
0.238128
0.427704
0.112244
-0.0803655
0.227276
0.510863
0.301896
0.0488751
0.258696
0.512737
0.291832
0.0185205
0.228557
0.511962
0.335368
0.0933203
0.291405
0.516834
0.277266
0.0158372
0.239516
0.508605
0.325319
0.118271
0.331015
0.497959
0.216901
0.0121262
0.28073
0.458265
0.145457
0.505725
0.628188
0.384155
-0.0202655
0.033089
0.465905
0.591548
0.222889
-0.052684
0.191601
0.571107
0.497375
0.0911267
-0.00788197
0.357477
0.611963
0.353689
-0.00691648
0.102755
0.507448
0.564539
0.188893
-0.0187229
0.264526
0.583516
0.445725
0.0862672
0.0592869
0.380761
0.557357
0.350552
0.0955483
0.190998
0.506744
0.482919
-0.0317849
-0.373339
-0.0355149
0.497136
0.595529
0.489254
0.587918
0.544549
0.0127505
-0.409653
-0.0970452
0.483406
0.617267
0.513653
0.604289
0.542225
-0.00310419
-0.410376
-0.0783912
0.491497
0.611808
0.523814
0.614914
0.509761
-0.040305
-0.374296
-0.00849494
0.48282
0.510429
0.207855
0.411811
0.524427
0.48733
0.483855
0.529787
0.528577
0.500253
0.505002
0.522233
0.519438
0.513876
0.521389
0.525397
0.517767
0.514502
0.522699
0.528809
0.52218
0.511689
0.51285
0.527438
0.534497
0.514998
0.492475
0.51148
0.552807
0.537454
0.474825
0.478309
0.552675
0.55949
0.510089
0.55531
0.549309
0.249063
-0.0219585
0.176037
0.506438
0.437614
0.244783
0.391656
0.532664
0.215507
-0.10509
0.133312
0.510313
0.423219
0.207266
0.371023
0.529003
0.209584
-0.104435
0.145191
0.512776
0.414353
0.206481
0.368437
0.510178
0.212807
-0.0619257
0.162521
0.512222
0.515547
-0.239445
-0.0190524
0.35029
0.567608
0.439881
0.0983177
-0.00312183
0.317853
0.593383
0.377709
-0.00316509
0.0612158
0.475855
0.578491
0.203849
-0.0509007
0.217808
0.581411
0.462506
0.0487922
-0.0084867
0.37813
0.592957
0.287819
-0.0605551
0.0964491
0.498861
0.484932
0.0787119
-0.0542181
0.254077
0.409619
0.162848
0.0500715
0.313987
0.496764
0.45751
0.518273
0.515224
0.0965072
-0.292983
-0.0443469
0.47184
0.57049
0.44174
0.547147
0.558916
0.0770777
-0.341204
-0.0547471
0.488899
0.578676
0.44609
0.552955
0.547978
0.0560922
-0.345367
-0.0473674
0.495851
0.601668
0.453884
0.477047
0.497018
0.245131
-0.122296
-0.065899
0.220683
0.442276
0.259589
-0.209061
-0.335698
0.119198
0.491679
0.17808
-0.351682
-0.256644
0.319192
0.459367
-0.060188
-0.414265
-0.0455731
0.459154
0.303111
-0.265089
-0.353165
0.170007
0.472722
0.0718642
-0.399906
-0.204784
0.319675
0.306963
-0.209106
-0.372115
0.0086808
0.170543
-0.176641
-0.314555
0.102108
0.452815
0.434108
0.45634
0.481147
0.11073
-0.279178
-0.0524272
0.45446
0.533715
0.368121
0.469709
0.538942
0.126132
-0.271862
-0.0147236
0.483149
0.530914
0.373503
0.492682
0.538521
0.10165
-0.279313
-0.00377947
0.488297
0.535755
0.355504
0.397077
0.466251
0.238189
0.339668
0.32029
0.410809
0.497243
0.397991
0.12861
0.0514158
0.34582
0.594254
0.380008
0.0126996
0.0758375
0.47615
0.577415
0.218833
-0.0314145
0.216716
0.569611
0.475758
0.0852268
0.00679095
0.359272
0.588196
0.329148
-0.00938241
0.108476
0.475703
0.469356
0.103633
0.0118609
0.307412
0.393522
0.100143
0.0194987
0.313141
0.356619
0.0546355
0.0809559
0.438911
0.475604
0.274511
0.372558
0.525664
0.210637
-0.181523
0.0136533
0.467904
0.494987
0.310173
0.428658
0.531708
0.162557
-0.197054
0.0525265
0.489854
0.477216
0.300909
0.432243
0.509153
0.133556
-0.192545
0.0511818
0.471653
0.519311
0.333461
0.50837
0.526294
0.429727
0.447601
0.542062
0.553832
0.506364
0.503695
0.532394
0.532638
0.51324
0.513035
0.530666
0.538282
0.524162
0.506682
0.516609
0.54468
0.542456
0.504503
0.498295
0.544239
0.55353
0.496386
0.483535
0.546642
0.530376
0.411948
0.418433
0.562771
0.548832
0.370065
0.402226
0.585469
0.367144
-0.134819
-0.113315
0.413811
0.646101
0.520764
0.547169
0.564175
0.134164
-0.316954
-0.102346
0.455176
0.615549
0.503419
0.581444
0.560337
0.0623884
-0.360789
-0.0774498
0.474736
0.597672
0.498923
0.591173
0.525549
0.0129537
-0.324812
0.0107847
0.480285
0.51676
-0.0788446
0.3415
0.326162
0.00657656
0.0581666
0.456624
0.546743
0.180031
-0.0514879
0.216234
0.564544
0.458604
0.0732979
0.0112411
0.365795
0.578527
0.316723
0.00197077
0.129584
0.482302
0.496088
0.173634
0.0372758
0.254093
0.437486
0.335678
0.159636
0.112937
0.143364
0.197068
0.239042
0.159541
0.0283695
0.139024
0.417263
0.370183
0.0364179
0.049218
0.374949
0.362265
0.0962232
0.17454
0.458231
0.390477
0.158482
0.288073
0.50994
0.300187
0.00720942
0.192841
0.503888
0.370698
0.127069
0.2984
0.516154
0.280785
0.0128837
0.224101
0.490609
0.327194
0.155021
0.362004
0.450131
0.099306
-0.0801526
0.347783
0.22694
-0.249854
-0.221629
0.286187
0.409274
-0.0788918
-0.400287
-0.0458847
0.431665
0.295018
-0.235775
-0.337844
0.136712
0.444218
0.111283
-0.328415
-0.194543
0.275557
0.335835
-0.0744267
-0.292016
-0.042457
0.212187
0.11028
-0.109079
-0.161923
-0.121143
-0.0858628
-0.0532475
-0.111751
-0.260126
-0.207505
0.135792
0.377182
0.340807
0.34633
0.376378
0.0702876
-0.300693
-0.142953
0.356372
0.557505
0.494615
0.572051
0.540298
0.0349754
-0.407257
-0.13548
0.443367
0.598285
0.493054
0.583161
0.550871
0.0280652
-0.399972
-0.107539
0.445359
0.577086
0.503244
0.580609
0.441173
-0.093109
0.374665
0.615999
0.453408
0.0506834
0.0662285
0.459365
0.564034
0.212913
-0.0224422
0.221399
0.55661
0.471875
0.10521
0.0163305
0.332297
0.568252
0.365045
0.0416844
0.0939125
0.422748
0.505071
0.231167
0.0553765
0.213549
0.395247
0.329674
0.19095
0.18083
0.20631
0.20237
0.235934
0.242405
0.131135
0.0858842
0.261714
0.447799
0.482867
0.511186
0.483912
0.198603
-0.0577211
0.126143
0.464693
0.424824
0.219604
0.350436
0.521216
0.234524
-0.0981324
0.116143
0.502994
0.43098
0.191085
0.338031
0.529652
0.239623
-0.0999776
0.111085
0.489632
0.428783
0.211583
0.323413
0.465714
0.265953
0.441105
0.546486
0.554657
0.428777
0.413073
0.524617
0.574796
0.521161
0.478959
0.497349
0.536709
0.553542
0.526917
0.48518
0.49874
0.571938
0.583961
0.491581
0.448326
0.551017
0.626556
0.520881
0.417067
0.504499
0.623888
0.553739
0.422885
0.45815
0.568987
0.57075
0.497858
0.479613
0.521443
0.563199
0.523651
0.36472
0.268098
0.409558
0.553099
0.426562
0.310465
0.507666
0.629096
0.227546
-0.229901
-0.0359293
0.478818
0.576054
0.422635
0.52577
0.596817
0.171028
-0.281534
-0.0643558
0.470057
0.581776
0.438205
0.532207
0.583995
0.175831
-0.247463
-0.0651737
0.437844
0.618455
-0.0534804
0.0399102
0.295255
0.41533
0.311644
0.124859
0.114739
0.328332
0.459356
0.280596
0.0626782
0.163097
0.421309
0.421742
0.193579
0.131766
0.291419
0.364444
0.27991
0.267587
0.329054
0.25464
0.149878
0.268649
0.452257
0.337233
0.0649961
0.097621
0.39739
0.476752
0.201889
0.0170746
0.233638
0.554227
0.478115
0.0389687
-0.156729
0.163723
0.463668
0.296398
0.0934333
0.330121
0.570028
0.225672
-0.26223
-0.105584
0.415124
0.518337
0.324438
0.393241
0.519538
0.203354
-0.208776
-0.0489676
0.422736
0.525048
0.388451
0.472322
0.536721
0.188562
-0.198662
-0.0558696
0.384052
0.493912
-0.230324
-0.136939
0.178605
0.352946
0.185998
-0.139538
-0.190927
0.115643
0.315133
0.0719944
-0.241024
-0.125039
0.21775
0.236103
-0.0563502
-0.160376
0.0193279
0.120591
0.0492314
0.0556123
0.114248
-0.0226925
-0.180455
-0.00251147
0.287125
0.15209
-0.254795
-0.261398
0.172892
0.340832
-0.0582811
-0.401762
-0.132048
0.376493
0.374411
-0.111732
-0.292422
0.125611
0.432262
0.0986412
-0.295001
-0.0538685
0.437817
0.428874
0.119392
0.171542
0.401371
0.216894
-0.147713
-0.0547583
0.353353
0.458166
0.295095
0.336032
0.445723
0.207772
-0.0959257
0.0289722
0.352766
0.390665
0.252717
0.304913
0.419961
0.241036
0.233462
0.242023
0.401313
0.535577
0.443077
0.175046
0.0918609
0.329478
0.520214
0.341455
0.0681579
0.140747
0.419173
0.447164
0.215704
0.131886
0.276678
0.350902
0.28661
0.300839
0.36847
0.258114
0.102889
0.22716
0.480493
0.404086
0.0752251
0.0366361
0.374803
0.539742
0.246388
-0.0486452
0.115656
0.491758
0.514932
0.189655
0.0813281
0.389269
0.584194
0.278236
-0.0785622
0.0755548
0.488773
0.589127
0.455943
0.480259
0.504686
0.201272
-0.140054
-0.0276715
0.387982
0.582551
0.530336
0.553492
0.527618
0.171537
-0.183978
-0.0662641
0.331024
0.530541
0.500925
0.491136
0.482502
0.310238
0.539497
0.357774
0.342387
0.537085
0.633593
0.453177
0.294546
0.441259
0.662743
0.585647
0.336828
0.343424
0.58723
0.659764
0.458748
0.349887
0.505519
0.640818
0.549166
0.429144
0.486338
0.582208
0.552796
0.482693
0.502249
0.55278
0.541754
0.504382
0.510335
0.542673
0.548226
0.527339
0.506037
0.502617
0.51034
0.509283
0.50242
0.508104
0.505691
0.468818
0.45257
0.486468
0.466922
0.377537
0.401517
0.55039
0.54689
0.338666
0.251711
0.427551
0.553232
0.375722
0.182751
0.325657
0.542493
0.422577
0.187395
0.265435
0.517154
0.528425
0.308531
0.212188
0.345579
0.487417
0.320923
-0.0586656
-0.124287
0.220713
0.455144
0.237768
-0.0421891
0.0915458
0.416832
0.385687
0.0562565
0.00338005
0.32598
0.482691
0.206984
-0.0217776
0.199467
0.511291
0.392765
0.0350092
0.031832
0.39866
0.563116
0.271453
-0.0117721
0.160105
0.524676
0.516211
0.144047
-0.0102352
0.302295
0.60221
0.417428
0.0374444
0.0595881
0.431003
0.541294
0.209871
-0.0369765
0.193858
0.573343
0.54529
0.121986
-0.123362
0.120013
0.433051
0.346728
0.114948
0.242381
0.583636
0.543617
0.0313002
-0.306766
-0.0193857
0.454358
0.503643
0.292088
0.335274
0.548642
0.438843
-0.00062531
-0.222425
0.0471032
0.43363
0.201706
-0.18488
-0.205002
0.170956
0.372445
0.0851837
-0.236514
-0.0815654
0.283424
0.232952
-0.164687
-0.241397
0.144833
0.346523
-4.69997e-05
-0.327909
-0.0754139
0.361122
0.252642
-0.245769
-0.322919
0.165891
0.448871
0.0630521
-0.385041
-0.177463
0.370574
0.392999
-0.155918
-0.414915
0.027266
0.476466
0.223328
-0.318546
-0.271412
0.294805
0.478649
-0.00856689
-0.39985
-0.0894404
0.450468
0.415589
-0.114988
-0.319655
0.0916184
0.437791
0.178274
-0.21698
-0.0647159
0.416988
0.469395
-0.0117343
-0.310121
0.00795151
0.444939
0.378478
0.0331236
0.0545886
0.402712
0.438152
0.0174063
-0.261173
-0.00686903
0.37186
0.412364
0.287356
0.299308
0.462281
0.53006
0.360055
0.185205
0.282936
0.499298
0.453987
0.187703
0.131386
0.392576
0.5355
0.289348
0.0371335
0.200451
0.527156
0.473032
0.10686
0.0173647
0.358875
0.583617
0.315061
-0.0274104
0.105827
0.511035
0.541759
0.141634
-0.0580184
0.260149
0.589444
0.401689
0.0010013
0.0367747
0.459529
0.60627
0.258148
-0.0352932
0.167006
0.533259
0.501194
0.15348
0.0711624
0.400088
0.610893
0.343942
-0.014841
0.0597918
0.430926
0.552343
0.323945
0.184368
0.36892
0.55435
0.3831
0.0590812
0.0785913
0.426565
0.582715
0.366028
0.174349
0.310404
0.523446
0.381838
0.624632
0.595121
0.393269
0.352508
0.510287
0.602565
0.518923
0.43591
0.484938
0.565631
0.550187
0.488901
0.490922
0.536727
0.543669
0.510596
0.503189
0.529328
0.540176
0.520982
0.510451
0.526023
0.534365
0.520813
0.511578
0.52433
0.535226
0.524537
0.512417
0.522279
0.537014
0.526467
0.505695
0.506077
0.518409
0.519145
0.517001
0.522876
0.519574
0.500478
0.490172
0.505429
0.525221
0.519728
0.494962
0.478286
0.474484
0.468598
0.458763
0.473956
0.534801
0.575787
0.520581
0.43395
0.408325
0.422063
0.444331
0.474647
0.503808
0.538515
0.557251
0.529072
0.496747
0.0312103
0.507984
0.399479
-0.10382
-0.194527
0.2679
0.557618
0.249489
-0.123377
0.0493871
0.487003
0.493516
0.0816894
-0.0648969
0.294074
0.584983
0.349735
-0.0215135
0.0725583
0.483613
0.559242
0.186601
-0.0321843
0.254135
0.593805
0.450387
0.0533702
0.0322728
0.420708
0.605761
0.297699
-0.0128868
0.166192
0.553011
0.533004
0.125904
-0.0365034
0.301869
0.612371
0.409585
0.0207386
0.0637652
0.459605
0.559713
0.186771
-0.0751875
0.194812
0.591768
0.518915
0.104924
-0.00641145
0.336889
0.548564
0.257474
-0.0580601
0.137636
0.554617
0.566745
0.181852
0.0010069
0.288096
0.552053
0.349724
0.0259398
0.00581153
0.461476
0.323794
-0.221608
-0.316433
0.191982
0.488655
0.0836687
-0.386232
-0.17068
0.383933
0.380423
-0.181419
-0.397268
0.0827237
0.48878
0.165681
-0.368085
-0.254597
0.32699
0.446548
-0.0868236
-0.418707
-0.0171239
0.480938
0.283024
-0.29631
-0.336735
0.226028
0.498742
0.0486443
-0.409384
-0.147391
0.425623
0.409097
-0.170704
-0.402075
0.0768602
0.507254
0.210634
-0.332133
-0.248821
0.328836
0.476365
-0.0475324
-0.418903
-0.051013
0.489225
0.371308
-0.205251
-0.32916
0.179064
0.480991
0.0825462
-0.355561
-0.100265
0.466079
0.461424
-0.108395
-0.357583
0.0868093
0.486095
0.183162
-0.330137
0.384616
0.591413
0.525784
0.253755
0.200904
0.463046
0.61102
0.361595
0.0746592
0.206706
0.553587
0.542436
0.162144
0.00898527
0.330896
0.609023
0.382
0.00188597
0.075912
0.487785
0.574129
0.188875
-0.056889
0.229
0.59124
0.450247
0.0283784
-0.00396743
0.404971
0.604703
0.276672
-0.059733
0.127539
0.544044
0.537484
0.125577
-0.0372347
0.305451
0.606804
0.384988
-0.00675266
0.0582945
0.480351
0.596425
0.233572
-0.0314405
0.211798
0.570397
0.469241
0.0631163
0.00286716
0.394346
0.619797
0.330449
-0.00231274
0.147975
0.531021
0.520422
0.11194
-0.0473963
0.309844
0.6197
0.380395
-0.0387966
0.503688
0.3482
0.40912
0.579824
0.597601
0.46614
0.41117
0.500073
0.575551
0.539232
0.478648
0.489047
0.534859
0.541461
0.515742
0.507432
0.520216
0.526006
0.520663
0.521269
0.526014
0.521185
0.513075
0.518078
0.530157
0.527857
0.513604
0.511303
0.525958
0.533688
0.521891
0.509743
0.514073
0.524339
0.524275
0.5172
0.516349
0.523445
0.52603
0.516837
0.50772
0.509946
0.515091
0.516595
0.522284
0.527669
0.519916
0.506687
0.499868
0.499582
0.507311
0.517809
0.520565
0.519015
0.51455
0.504762
0.501391
0.501904
0.491294
0.489722
0.519687
0.547811
0.525768
0.473702
0.239035
-0.219154
-0.0740612
0.440856
0.505778
0.0405689
-0.184362
0.197933
0.582065
0.378279
-0.058971
-0.0206266
0.430849
0.583988
0.215868
-0.06989
0.184473
0.573905
0.485926
0.0719454
-0.00371439
0.379341
0.614215
0.333003
-0.0132296
0.125731
0.529482
0.559019
0.168622
-0.02333
0.287651
0.611335
0.43508
0.0345129
0.0408536
0.442837
0.602624
0.266845
-0.0308232
0.183211
0.571003
0.515947
0.0980206
-0.0264447
0.339315
0.614594
0.363937
-0.00525794
0.101261
0.512889
0.570848
0.176467
-0.0496561
0.250111
0.59781
0.445841
0.0566812
0.0677235
0.461577
0.60672
0.274578
0.000693995
0.221108
0.577261
0.194396
-0.320211
-0.180157
0.378412
0.437646
-0.114917
-0.395358
0.0480624
0.501953
0.230651
-0.338187
-0.296823
0.288349
0.48132
-0.0272837
-0.424765
-0.0764029
0.462793
0.333436
-0.257425
-0.368109
0.178052
0.513709
0.106699
-0.395416
-0.195584
0.389499
0.432726
-0.134337
-0.414444
0.0356376
0.505715
0.254135
-0.320161
-0.308262
0.270423
0.498096
0.0134029
-0.414808
-0.105923
0.4543
0.381154
-0.210536
-0.38628
0.129226
0.513676
0.1564
-0.365531
-0.211573
0.375722
0.457352
-0.103096
-0.418249
0.0130673
0.506885
0.283308
-0.288052
-0.282914
0.290203
0.502732
0.00208595
-0.414325
-0.0789113
0.467917
0.461095
0.202426
0.269636
0.561146
0.58856
0.270405
0.0981055
0.350688
0.618336
0.44336
0.0769022
0.0980356
0.476066
0.596838
0.245858
-0.0298953
0.209126
0.581963
0.486233
0.064998
-0.014767
0.374407
0.612798
0.318019
-0.044584
0.0996147
0.522203
0.553387
0.143627
-0.0589753
0.265482
0.604232
0.423134
0.0106604
0.0208054
0.438073
0.601819
0.252831
-0.0564366
0.163005
0.5642
0.514102
0.0944011
-0.0280167
0.341335
0.613853
0.353935
-0.0253338
0.0801385
0.50109
0.564714
0.170675
-0.0492482
0.258821
0.605502
0.432326
0.00438676
0.00109846
0.427382
0.589941
0.210684
-0.111207
0.142785
0.56243
0.440308
0.596674
0.556115
0.424189
0.42484
0.541265
0.585014
0.510273
0.454672
0.495945
0.553163
0.544643
0.50484
0.499665
0.52275
0.531728
0.522335
0.517641
0.520494
0.519386
0.517127
0.522377
0.527584
0.521205
0.511818
0.515447
0.527325
0.528511
0.517424
0.511987
0.520119
0.527989
0.522863
0.512956
0.513842
0.524056
0.527829
0.520131
0.513139
0.515794
0.521663
0.520901
0.515274
0.515255
0.523123
0.527504
0.519601
0.507422
0.506891
0.518771
0.526304
0.522385
0.516543
0.516036
0.518198
0.508958
0.485995
0.485316
0.524819
0.54905
0.512075
0.468681
0.496711
0.559703
0.0761653
0.535639
0.383437
-0.107002
-0.128878
0.355421
0.578754
0.209291
-0.136179
0.10114
0.542331
0.49747
0.0616525
-0.0573895
0.329912
0.611256
0.352673
-0.0225926
0.084166
0.503306
0.574445
0.191415
-0.0354113
0.253161
0.60117
0.460133
0.0545844
0.0260307
0.419892
0.613996
0.301117
-0.0248332
0.151035
0.550345
0.541105
0.137434
-0.0221247
0.315553
0.616739
0.404277
0.0138976
0.0638954
0.474788
0.594463
0.233537
-0.0334005
0.217627
0.585611
0.48642
0.0840017
0.0260551
0.408341
0.617106
0.311817
-0.0202397
0.152068
0.549558
0.544928
0.16824
0.0393233
0.368262
0.628603
0.414944
0.0927286
0.0216379
0.503628
0.304343
-0.277243
-0.316014
0.245661
0.500388
0.0326645
-0.409769
-0.118726
0.437517
0.364711
-0.22379
-0.389146
0.13226