# vtk DataFile Version 3.0
PFC-RG simulation results
ASCII
DATASET STRUCTURED_POINTS
DIMENSIONS 64 64 1
ORIGIN 0 0 0
SPACING 1 1 1
POINT_DATA 4096
SCALARS psi double
LOOKUP_TABLE default
0.284962
0.284962
0.285044
0.285039
0.284935
0.285046
0.28473
0.283112
0.283868
0.284892
0.283969
0.287151
0.287569
0.28556
0.284219
0.281971
0.282063
0.284514
0.285176
0.284477
0.287871
0.287678
0.284748
0.285067
0.282981
0.283397
0.286222
0.284209
0.285295
0.286526
0.289724
0.288993
0.285233
0.284945
0.288397
0.288377
0.28356
0.284142
0.284749
0.287684
0.285115
0.283202
0.284343
0.286093
0.286692
0.283179
0.282433
0.284403
0.286469
0.287535
0.286906
0.28607
0.287433
0.287067
0.284824
0.283586
0.286072
0.285375
0.284906
0.285017
0.284921
0.285022
0.285044
0.284998
0.28499
0.285065
0.284991
0.284939
0.285019
0.285022
0.285083
0.286087
0.285234
0.284388
0.287183
0.283205
0.282735
0.286498
0.288974
0.290144
0.288094
0.285561
0.287225
0.288482
0.282308
0.282071
0.286007
0.286348
0.287988
0.28737
0.285655
0.288547
0.28817
0.286414
0.283961
0.28108
0.281591
0.284411
0.284896
0.284523
0.288604
0.288687
0.285059
0.283556
0.28618
0.288377
0.285049
0.284944
0.284584
0.286729
0.288359
0.287022
0.28435
0.282344
0.281948
0.283137
0.28341
0.28324
0.285698
0.285573
0.283944
0.283821
0.284749
0.285071
0.285021
0.285044
0.284948
0.284977
0.285047
0.284957
0.284953
0.285055
0.285061
0.284816
0.285301
0.28812
0.287686
0.284752
0.284545
0.282002
0.281892
0.285491
0.28441
0.28495
0.288285
0.288972
0.285862
0.28361
0.282258
0.282962
0.28584
0.283308
0.284046
0.285523
0.284329
0.283648
0.282655
0.284641
0.283789
0.284448
0.28692
0.287308
0.284917
0.283443
0.283989
0.283476
0.285662
0.282892
0.283203
0.285236
0.285197
0.284443
0.28421
0.286271
0.286231
0.285322
0.284904
0.284054
0.283865
0.284192
0.283583
0.284236
0.285648
0.28587
0.283215
0.283983
0.285156
0.285047
0.285007
0.284925
0.285018
0.285047
0.28495
0.284985
0.285083
0.284987
0.284907
0.28514
0.284669
0.281193
0.282191
0.285232
0.283637
0.291127
0.291661
0.283538
0.282563
0.27996
0.277488
0.280132
0.283103
0.283861
0.29117
0.2909
0.283302
0.284238
0.282881
0.282007
0.284056
0.283049
0.283335
0.283869
0.285347
0.287294
0.287146
0.28491
0.284163
0.285244
0.283201
0.282778
0.284588
0.287322
0.285647
0.282301
0.285786
0.283073
0.283997
0.282468
0.279019
0.279578
0.283165
0.287827
0.291576
0.290446
0.286665
0.285959
0.282982
0.284677
0.287871
0.287739
0.285331
0.284745
0.285004
0.285042
0.285048
0.284944
0.285039
0.285055
0.284937
0.284948
0.285059
0.285123
0.284961
0.283722
0.283773
0.28654
0.285752
0.283534
0.281707
0.279077
0.281691
0.286816
0.283855
0.276922
0.277008
0.283012
0.283525
0.28252
0.283661
0.288199
0.287628
0.286165
0.285921
0.286585
0.287787
0.284608
0.284605
0.284555
0.282406
0.281789
0.284103
0.285649
0.286147
0.287214
0.284189
0.285601
0.286283
0.2851
0.2836
0.287386
0.287539
0.285612
0.288522
0.287326
0.28357
0.282696
0.281252
0.281578
0.286467
0.285391
0.284571
0.284275
0.285695
0.284891
0.284664
0.285153
0.285046
0.284995
0.284917
0.285029
0.28496
0.284956
0.285017
0.285081
0.284963
0.284796
0.285288
0.289524
0.288484
0.283344
0.285396
0.277047
0.28461
0.307026
0.298706
0.289226
0.304596
0.317708
0.308284
0.292601
0.281578
0.281609
0.2887
0.282814
0.283447
0.286221
0.285837
0.28539
0.284764
0.287054
0.28695
0.284854
0.284999
0.287292
0.287748
0.28582
0.285448
0.28503
0.286115
0.284193
0.283842
0.286623
0.285109
0.293957
0.289645
0.280868
0.286797
0.300402
0.30336
0.29293
0.276023
0.273471
0.286564
0.291606
0.289815
0.283953
0.281306
0.281909
0.284749
0.285188
0.284861
0.285003
0.285051
0.285026
0.285048
0.284976
0.285054
0.284966
0.285016
0.284918
0.284916
0.283749
0.28436
0.285182
0.285074
0.296317
0.28734
0.246163
0.270881
0.28361
0.257025
0.235751
0.256823
0.280756
0.279173
0.29149
0.286119
0.284583
0.286315
0.284733
0.283896
0.285068
0.283619
0.28428
0.283943
0.283775
0.285438
0.286103
0.284394
0.28337
0.284872
0.284967
0.285769
0.282304
0.284716
0.286702
0.286161
0.258737
0.256632
0.30874
0.281158
0.250802
0.247386
0.261804
0.298556
0.320458
0.259895
0.262509
0.281724
0.287742
0.285972
0.286056
0.285644
0.284581
0.285168
0.285005
0.285048
0.284872
0.286158
0.284505
0.283943
0.285342
0.286849
0.28366
0.283579
0.284979
0.287098
0.27648
0.275372
0.305957
0.253225
0.265957
0.448374
0.419221
0.199144
0.136574
0.341871
0.454531
0.323284
0.27813
0.266323
0.287122
0.292548
0.280533
0.28283
0.287011
0.286529
0.279758
0.283372
0.288761
0.284858
0.280283
0.284793
0.286413
0.281782
0.282995
0.285887
0.285816
0.283373
0.280777
0.297554
0.293416
0.359599
0.497136
0.300007
0.0348052
-0.0692846
0.0372234
0.301761
0.489562
0.363814
0.300628
0.284196
0.287278
0.29071
0.284662
0.285567
0.285677
0.285357
0.283901
0.28502
0.285597
0.285849
0.283998
0.284321
0.28583
0.286466
0.283018
0.28366
0.28583
0.283621
0.279907
0.319319
0.314434
0.321852
0.547192
0.687504
0.495064
0.284779
0.383965
0.645313
0.63536
0.367262
0.296142
0.311641
0.276892
0.28266
0.275532
0.281953
0.287892
0.287961
0.283039
0.286185
0.289934
0.285917
0.281697
0.28712
0.290435
0.283491
0.280456
0.288705
0.297361
0.276713
0.27146
0.29839
0.281438
0.297055
0.354795
0.297915
0.232603
0.20713
0.224329
0.282502
0.330918
0.298108
0.288156
0.288218
0.27518
0.280141
0.283195
0.285782
0.286622
0.284556
0.283653
0.28551
0.285871
0.284045
0.28434
0.286149
0.285855
0.283017
0.284027
0.288587
0.28706
0.287611
0.288298
0.203386
0.10447
0.256389
0.468003
0.386519
0.138533
0.118806
0.355658
0.474724
0.293312
0.0998336
0.211722
0.384155
0.302611
0.302717
0.298986
0.282839
0.287545
0.285325
0.285323
0.285268
0.283151
0.282186
0.284316
0.28627
0.285267
0.285495
0.286585
0.289137
0.27566
0.273991
0.337955
0.268491
0.0272543
-0.082255
0.011237
0.272105
0.555186
0.674842
0.561152
0.286844
0.0215286
-0.0815834
0.029153
0.26897
0.333235
0.272648
0.279724
0.284317
0.285389
0.284246
0.285046
0.286
0.284817
0.284006
0.286074
0.285804
0.283802
0.28281
0.290174
0.286982
0.281129
0.29644
0.149154
-0.0765556
-0.0482609
0.201235
0.273213
0.0484418
-0.114958
0.0393659
0.268267
0.208516
-0.0421129
-0.0903611
0.14787
0.293349
0.147824
0.216237
0.304552
0.285712
0.283023
0.282764
0.285483
0.283887
0.284324
0.285978
0.286406
0.285533
0.282791
0.28386
0.28325
0.285293
0.277606
0.28969
0.380418
0.296853
0.144929
0.0840035
0.131206
0.281776
0.431556
0.487473
0.430625
0.292324
0.143773
0.0807951
0.140636
0.305821
0.376762
0.290235
0.295352
0.283442
0.282072
0.28583
0.285656
0.285092
0.284011
0.285524
0.286136
0.283251
0.284077
0.287799
0.290715
0.259958
0.287245
0.410799
0.205205
0.0908627
0.286795
0.475753
0.362786
0.123813
0.145271
0.392032
0.474133
0.260986
0.0893096
0.220877
0.457063
0.411572
0.137943
0.154522
0.252493
0.269569
0.293143
0.284583
0.280512
0.28626
0.289561
0.284711
0.283134
0.28786
0.284337
0.281714
0.28142
0.302274
0.272975
0.0336123
0.0786414
0.288585
0.493437
0.575034
0.496108
0.299966
0.0815331
-0.0143563
0.0731501
0.281525
0.484052
0.572245
0.489201
0.295743
0.0758548
0.0319274
0.267781
0.302239
0.282385
0.284734
0.284583
0.28521
0.284616
0.285823
0.28579
0.283009
0.284693
0.288852
0.283594
0.266589
0.366095
0.478233
0.311306
0.381829
0.629538
0.643614
0.406939
0.287508
0.477678
0.676096
0.569095
0.324624
0.33213
0.578286
0.677657
0.473421
0.290965
0.391818
0.352818
0.26872
0.292885
0.288468
0.28117
0.285161
0.28769
0.281189
0.280082
0.288272
0.28527
0.284049
0.287319
0.296161
0.24308
-0.0230963
0.03381
0.291214
0.515097
0.605814
0.51313
0.288078
0.0523321
-0.0449259
0.0562609
0.290962
0.513726
0.607472
0.517756
0.289434
0.029764
-0.0237809
0.235398
0.292543
0.284945
0.28557
0.284123
0.284991
0.285045
0.283794
0.284653
0.285276
0.287547
0.28295
0.275677
0.318957
0.339226
0.174848
0.112497
0.329303
0.485577
0.322549
0.100784
0.172554
0.423088
0.452562
0.21412
0.0855487
0.2727
0.481375
0.380505
0.125836
0.131237
0.391377
0.412561
0.302924
0.290734
0.275722
0.286606
0.291227
0.28378
0.280595
0.288677
0.291992
0.279543
0.285047
0.289802
0.277789
0.402257
0.445757
0.388578
0.291876
0.171613
0.123573
0.170823
0.281883
0.391128
0.438858
0.398133
0.290655
0.176897
0.127795
0.17331
0.282766
0.398565
0.448156
0.40556
0.29118
0.281045
0.282814
0.286697
0.286401
0.284024
0.284517
0.282808
0.28423
0.289878
0.283624
0.277471
0.2894
0.0831612
-0.122958
0.0280851
0.258779
0.216204
-0.0314799
-0.0951901
0.124251
0.286799
0.134206
-0.0933736
-0.0367653
0.216405
0.261018
0.0289398
-0.119377
0.0558077
0.277527
0.219013
0.257967
0.305225
0.274806
0.281226
0.288098
0.28719
0.281332
0.284486
0.289452
0.283549
0.279837
0.280902
0.30391
0.539186
0.690586
0.559503
0.282241
0.0134452
-0.102835
0.00879536
0.289059
0.56585
0.679232
0.564123
0.282177
0.00257438
-0.103269
0.0131739
0.283782
0.556942
0.692981
0.544566
0.299917
0.284005
0.283249
0.282275
0.288238
0.28606
0.288513
0.282511
0.281483
0.288327
0.289856
0.27654
0.284399
0.145613
0.115961
0.375929
0.482861
0.274168
0.0850634
0.212853
0.451495
0.425773
0.179565
0.101585
0.312863
0.48008
0.340146
0.113851
0.156779
0.401922
0.460508
0.258621
0.255553
0.301829
0.285845
0.278498
0.283034
0.290184
0.285054
0.278588
0.283336
0.291962
0.279804
0.277548
0.299005
0.284948
0.286004
0.297481
0.282247
0.280143
0.279297
0.282096
0.28667
0.29005
0.290349
0.289315
0.286073
0.279175
0.277002
0.282467
0.290653
0.280333
0.289016
0.28707
0.270579
0.29122
0.289445
0.278574
0.284735
0.288905
0.289574
0.286536
0.280321
0.283296
0.292983
0.279809
0.283756
0.292949
0.455401
0.669335
0.589472
0.34117
0.322447
0.56125
0.681141
0.485836
0.286061
0.398804
0.645024
0.63263
0.387986
0.298087
0.504847
0.676485
0.544609
0.323563
0.27879
0.286132
0.290386
0.283443
0.284863
0.287759
0.287598
0.283979
0.283443
0.289882
0.286216
0.287449
0.273084
0.0279469
-0.122496
0.0168867
0.289598
0.552618
0.666145
0.563491
0.287358
0.00504505
-0.111137
0.00671563
0.287566
0.562025
0.666607
0.554278
0.289177
0.0140263
-0.117614
0.0343472
0.266425
0.289621
0.290044
0.284787
0.279667
0.286599
0.285032
0.290894
0.283076
0.279084
0.287023
0.30188
0.252275
0.186193
0.399084
0.46097
0.236404
0.0878153
0.250632
0.467624
0.395673
0.148905
0.116755
0.351874
0.483495
0.300301
0.0888071
0.187859
0.443307
0.446007
0.181769
0.115661
0.272002
0.286526
0.288939
0.286264
0.2821
0.282096
0.285332
0.286682
0.283387
0.281232
0.291121
0.291573
0.265955
0.174441
0.107734
0.159342
0.293717
0.406405
0.451222
0.402401
0.286224
0.166083
0.117449
0.170166
0.287737
0.403902
0.45515
0.406618
0.283171
0.172533
0.106699
0.172956
0.288711
0.278437
0.284308
0.292725
0.280488
0.281267
0.279659
0.28866
0.28901
0.280505
0.2766
0.310999
0.246991
0.145727
0.280164
0.146361
-0.0901409
-0.0488859
0.200398
0.270395
0.0463674
-0.112994
0.043373
0.2686
0.207139
-0.0421932
-0.0912086
0.139062
0.287196
0.116782
-0.121992
0.00762027
0.275582
0.28131
0.284517
0.287168
0.281364
0.28492
0.286319
0.285406
0.28602
0.281453
0.284261
0.282892
0.294814
0.510194
0.622611
0.500975
0.284847
0.0656009
-0.0331533
0.0545868
0.285796
0.512654
0.603166
0.512912
0.28907
0.0592843
-0.0324923
0.0645219
0.282934
0.508302
0.615454
0.494129
0.307099
0.277804
0.279721
0.289778
0.287913
0.280074
0.280462
0.284287
0.290161
0.284487
0.27568
0.295816
0.29337
0.383181
0.455597
0.201049
0.0865051
0.295049
0.484715
0.360244
0.118893
0.140223
0.388508
0.470631
0.256295
0.0877828
0.232745
0.460957
0.40903
0.168332
0.117457
0.273643
0.315125
0.273829
0.284489
0.287109
0.284103
0.287516
0.286882
0.283488
0.286097
0.286561
0.282256
0.280078
0.29195
0.484917
0.593207
0.498341
0.28282
0.0723605
-0.0170998
0.0749295
0.292686
0.500572
0.580919
0.491263
0.282043
0.0692059
-0.0220721
0.0690603
0.29086
0.495412
0.590014
0.480283
0.289256
0.2847
0.282236
0.283353
0.2906
0.283019
0.284032
0.287568
0.284517
0.282364
0.286425
0.290678
0.263961
0.362099
0.471253
0.304807
0.389132
0.631738
0.64306
0.404573
0.287985
0.48113
0.676478
0.565799
0.323587
0.333908
0.576601
0.674415
0.468122
0.298701
0.401833
0.348617
0.270864
0.287267
0.291048
0.283072
0.283444
0.286249
0.282641
0.281499
0.285941
0.285307
0.287068
0.28809
0.284133
0.266577
0.0881927
0.125801
0.297856
0.421129
0.471186
0.419647
0.288827
0.146263
0.0884442
0.15154
0.290566
0.418703
0.475111
0.42447
0.286767
0.132656
0.0930445
0.271797
0.292214
0.282869
0.284351
0.285893
0.28609
0.282495
0.284449
0.28681
0.284478
0.282535
0.286697
0.29307
0.265114
0.263102
0.192761
0.083595
0.331235
0.481419
0.31031
0.104039
0.17858
0.425117
0.454243
0.220437
0.092691
0.274279
0.472248
0.377267
0.129814
0.12852
0.349006
0.288092
0.258507
0.292083
0.287213
0.283436
0.284519
0.286947
0.284883
0.285015
0.28838
0.284979
0.283857
0.283705
0.301932
0.258193
-0.0280732
0.0010978
0.295656
0.552137
0.659513
0.548913
0.283785
0.00940445
-0.102496
0.0217073
0.297359
0.5545
0.665931
0.559796
0.281366
0.00859145
-0.0243798
0.252197
0.304485
0.282753
0.284049
0.284938
0.28604
0.283532
0.284305
0.283835
0.28557
0.286619
0.283165
0.284538
0.287486
0.306631
0.213676
0.0767183
0.262049
0.226957
-0.0307104
-0.0955423
0.126141
0.28794
0.13015
-0.0967616
-0.0352359
0.219646
0.262113
0.0271496
-0.111543
0.0744074
0.282911
0.285814
0.286247
0.288068
0.280541
0.283778
0.285091
0.285343
0.285529
0.286082
0.284569
0.283594
0.284197
0.280781
0.283595
0.301606
0.253836
0.280646
0.300898
0.262566
0.255917
0.268093
0.293474
0.312889
0.320271
0.309273
0.276312
0.252291
0.257274
0.264295
0.295384
0.28606
0.251511
0.282444
0.28812
0.283961
0.283578
0.284162
0.286738
0.285345
0.283011
0.285938
0.286611
0.283988
0.283329
0.286481
0.28279
0.296546
0.306185
0.290181
0.419769
0.300972
0.0922153
0.203849
0.441676
0.428646
0.183422
0.0923296
0.302481
0.481907
0.345898
0.12105
0.144178
0.270515
0.296479
0.28678
0.287028
0.284334
0.285402
0.284745
0.28418
0.284991
0.284251
0.282904
0.283323
0.284834
0.285134
0.286545
0.280654
0.281949
0.284149
0.32627
0.26746
0.00943879
-0.111734
0.0041886
0.283274
0.570959
0.689229
0.566214
0.27715
0.00327236
-0.113659
0.00567658
0.27041
0.327305
0.283613
0.285793
0.286722
0.283031
0.283222
0.287118
0.28606
0.28307
0.285946
0.288291
0.283159
0.281966
0.288122
0.287762
0.280286
0.2757
0.285042
0.273943
0.3285
0.329388
0.310668
0.565081
0.686936
0.471569
0.279377
0.404668
0.656859
0.620948
0.380422
0.288144
0.297643
0.290429
0.286426
0.283592
0.284197
0.285485
0.286714
0.285583
0.287566
0.286835
0.284437
0.28528
0.288457
0.286334
0.284235
0.287197
0.287032
0.281914
0.278959
0.278462
0.278861
0.186692
0.134108
0.207255
0.283662
0.348147
0.383156
0.360639
0.297516
0.232171
0.133988
0.179642
0.291405
0.271047
0.278879
0.297445
0.284482
0.280637
0.287031
0.288196
0.282133
0.282925
0.285051
0.287684
0.284142
0.282077
0.287294
0.287192
0.282538
0.281848
0.293162
0.282647
0.261984
0.284465
0.305809
0.448901
0.413403
0.181202
0.145094
0.351405
0.477134
0.336853
0.267226
0.297118
0.276123
0.279335
0.285409
0.281801
0.282092
0.286078
0.286592
0.284236
0.283377
0.283491
0.284468
0.28475
0.285348
0.284261
0.285782
0.284884
0.28722
0.286879
0.290922
0.288988
0.285914
0.295176
0.338575
0.453568
0.308554
0.0808133
-0.00766863
0.0802015
0.291279
0.456692
0.334979
0.283899
0.303688
0.278859
0.283132
0.286849
0.284797
0.282676
0.28537
0.287239
0.283891
0.282867
0.284503
0.285088
0.2855
0.284689
0.284701
0.285269
0.284936
0.28421
0.285779
0.285772
0.286795
0.295564
0.283229
0.281917
0.267417
0.237837
0.246863
0.277132
0.279863
0.253852
0.284716
0.29981
0.28504
0.282735
0.285205
0.284802
0.284016
0.283496
0.284699
0.283929
0.282856
0.284925
0.286568
0.284814
0.28348
0.28388
0.284006
0.283413
0.284336
0.285039
0.285183
0.285805
0.281428
0.267171
0.269095
0.323696
0.297061
0.251783
0.236027
0.245316
0.282011
0.316259
0.267457
0.263019
0.284924
0.285982
0.283816
0.282377
0.285898
0.285129
0.284321
0.285184
0.285556
0.284559
0.285091
0.28503
0.284923
0.285007
0.285057
0.284917
0.285334
0.287516
0.285513
0.283869
0.288174
0.278838
0.279313
0.289326
0.302323
0.317075
0.311055
0.292456
0.293557
0.301876
0.282807
0.275843
0.284676
0.283859
0.289065
0.290198
0.286587
0.283773
0.284515
0.284669
0.286779
0.288023
0.286267
0.28479
0.285733
0.286086
0.283067
0.284672
0.284321
0.280953
0.279679
0.282317
0.289642
0.29086
0.284297
0.267349
0.273842
0.298197
0.312321
0.308237
0.289435
0.277511
0.287886
0.294478
0.284342
0.286065
0.284529
0.284734
0.284988
0.284759
0.285229
0.285018
0.284863
0.285018
0.285083
0.28492
0.284924
0.285099
0.285052
0.284894
0.284955
0.285457
0.286011
0.285601
0.283224
0.283856
0.285032
0.285589
0.279123
0.275795
0.281323
0.286748
0.284073
0.281104
0.283701
0.284572
0.286727
0.288348
0.283909
0.282321
0.284782
0.288181
0.287316
0.285312
0.285003
0.283224
0.28183
0.282962
0.284609
0.285687
0.28801
0.287813
0.285649
0.286162
0.287896
0.286635
0.284149
0.285622
0.287459
0.285292
0.2844
0.28226
0.2801
0.282795
0.285245
0.284985
0.287159
0.286514
0.284027
0.283738
0.286628
0.286629
0.285057
0.285089
0.285055
0.284861
0.284988
0.285123
0.28489
0.285011
0.285116
0.284954
0.284887
0.285198
0.284643
0.280861
0.281854
0.285513
0.284117
0.290736
0.290809
0.282711
0.283266
0.281556
0.277826
0.278721
0.281759
0.283565
0.290967
0.290701
0.283039
0.283802
0.281685
0.281998
0.283758
0.284323
0.283907
0.286561
0.285401
0.283937
0.285565
0.287578
0.286825
0.284825
0.28512
0.283814
0.285925
0.288189
0.287916
0.285014
0.283054
0.285623
0.286251
0.290471
0.291387
0.287564
0.283094
0.279438
0.279375
0.283235
0.283791
0.282397
0.286156
0.284463
0.285833
0.285986
0.285146
0.284929
0.284856
0.2851
0.285081
0.284913
0.285067
0.285058
0.284922
0.284957
0.28509
0.284949
0.28533
0.287073
0.28632
0.285292
0.285702
0.282121
0.281718
0.283572
0.284815
0.288153
0.28904
0.286092
0.284129
0.284614
0.281506
0.281762
0.284362
0.283368
0.286721
0.288255
0.285779
0.282178
0.282502
0.283796
0.283836
0.28568
0.287628
0.286327
0.283766
0.283238
0.282149
0.282337
0.28401
0.283287
0.281833
0.283878
0.285752
0.283718
0.282591
0.282551
0.281917
0.282965
0.285235
0.287116
0.288372
0.286991
0.284044
0.284844
0.28524
0.285884
0.282691
0.282319
0.284523
0.285098
0.285112
0.285005
0.284898
0.285008
0.285001
0.284922
0.285004
0.285091
0.28499
0.284817
0.285067
0.287656
0.287185
0.283539
0.285474
0.283199
0.283152
0.289187
0.288216
0.285551
0.287036
0.289727
0.289816
0.287415
0.283559
0.283894
0.28766
0.286557
0.287087
0.285545
0.285404
0.287067
0.288065
0.282945
0.283413
0.285645
0.283516
0.280633
0.282117
0.285369
0.286247
0.287645
0.283868
0.282941
0.284599
0.286246
0.285829
0.283953
0.284633
0.284024
0.283037
0.283335
0.28468
0.286391
0.286873
0.285841
0.285337
0.285466
0.284231
0.28524
0.285214
0.285131
0.285271
0.285066
0.284942
0.284916
0.285067
0.285057
0.284945
0.285052
0.285053
0.284929
0.284953
0.285187
0.284725
0.282056
0.282598
0.28547
0.285117
0.287144
0.287254
0.283723
0.284776
0.285131
0.282759
0.281643
0.283419
0.285132
0.286908
0.286459
0.283667
0.285119
0.283761
0.283648
0.284812
0.285897
0.285334
0.28793
0.289842
0.286944
0.28424
0.28664
0.289874
0.288385
0.286057
0.285865
0.286892
0.286042
0.285511
0.284121
0.284761
0.28728
0.287471
0.286081
0.287385
0.288136
0.286667
0.284111
0.282032
0.282978
0.286442
0.285882
0.284793
0.284588
0.28678
0.287447
0.285279
0.284752
0.285003
0.285093
0.285005
0.284919
0.285072
0.284998
0.284933
0.285008
0.285055
0.285007
0.285142
0.284611
0.28491
0.286412
0.283789
0.285017
0.285234
0.282069
0.280995
0.28277
0.284491
0.283756
0.281393
0.281699
0.285341
0.285167
0.283988
0.284914
0.2833
0.284059
0.28442
0.2845
0.282699
0.285584
0.282961
0.280216
0.283821
0.287094
0.284266
0.282204
0.285372
0.283432
0.28563
0.287247
0.286547
0.2856
0.284496
0.284442
0.283669
0.284754
0.284921
0.284402
0.284358
0.284917
0.285589
0.285279
0.283852
0.284435
0.285684
0.284635
0.284212
0.28386
0.284604
0.285145
0.285073
0.284951
0.284935
0.285053
0.284953
0.284956
0.285045
0.285046
0.284957
0.284902
0.284981
0.286322
0.286048
0.283701
0.285367
0.284876
0.284776
0.28764
0.287512
0.285363
0.285137
0.286967
0.288123
0.286969
0.284931
0.285374
0.286288
0.28397
0.285565
0.2859
0.28473
0.283226
0.285557
0.282467
0.280224
0.285013
0.28803
0.284365
0.281026
0.282262
0.283082
0.283969
0.282341
0.284215
0.285465
0.285298
0.284736
0.283822
0.284499
0.28555
0.284325
0.28322
0.283497
0.284403
0.285674
0.286186
0.284556
0.284179
0.285088
0.28526
0.28428
0.283834
0.285048
0.285111
0.28488
0.284989
0.285075
0.285005
0.284993
0.285065
0.284995
0.284939
0.28502
0.285035
0.285033
0.285477
0.284959
0.284606
0.286358
0.283929
0.283559
0.285515
0.287063
0.288045
0.286872
0.285254
0.28598
0.286657
0.283221
0.283326
0.284627
0.284765
0.287052
0.286939
0.286903
0.284494
0.285389
0.284907
0.291414
0.294126
0.288191
0.284282
0.288403
0.290264
0.283139
0.285089
0.285475
0.281831
0.2808
0.282745
0.285705
0.285899
0.285639
0.284247
0.284981
0.286306
0.286491
0.285835
0.28486
0.284396
0.285758
0.285763
0.284434
0.285605
0.285196
0.285707
0.285129
0.284826
0.285065
0.285063
0.284958
0.284947
0.285057
0.284949
0.284963
0.285048
0.285021
0.284979
0.285055
0.284654
0.285079
0.285952
0.283789
0.285117
0.285437
0.283607
0.282254
0.282645
0.284354
0.284757
0.283049
0.282751
0.285794
0.285273
0.285329
0.288252
0.285158
0.282088
0.28355
0.29077
0.285616
0.282942
0.281916
0.275711
0.272587
0.276684
0.280406
0.28243
0.291137
0.289904
0.287338
0.286483
0.287151
0.288043
0.285468
0.284855
0.284776
0.284761
0.284934
0.285039
0.285256
0.285509
0.285135
0.284627
0.285008
0.285386
0.28502
0.284474
0.285589
0.285681
0.28499
0.285053
0.285049
0.284912
0.284991
0.285069
0.284924
0.285025
0.285063
0.284961
0.284951
0.285102
0.284745
0.283143
0.283733
0.284948
0.284483
0.28707
0.287338
0.284902
0.284763
0.283662
0.282521
0.28335
0.284779
0.285051
0.287124
0.287227
0.284717
0.282343
0.280935
0.285233
0.284491
0.28215
0.289239
0.303783
0.292533
0.282542
0.294683
0.310767
0.304793
0.288046
0.285
0.283767
0.285239
0.288528
0.288527
0.284854
0.283771
0.285249
0.285665
0.286064
0.285657
0.284826
0.283989
0.283568
0.284171
0.285322
0.284941
0.284431
0.285378
0.284553
0.285337
0.285105
0.285054
0.284979
0.284887
0.285078
0.285054
0.284931
0.285055
0.284987
0.284955
0.285036
0.285018
0.284908
0.285248
0.286569
0.28572
0.284767
0.286172
0.283293
0.282807
0.285252
0.286264
0.287357
0.287263
0.286065
0.28547
0.285631
0.282828
0.283405
0.283652
0.282222
0.286203
0.290063
0.286715
0.270965
0.266965
0.245464
0.264988
0.296213
0.290246
0.251606
0.24192
0.279451
0.266065
0.264407
0.284498
0.285546
0.280919
0.280876
0.285066
0.284787
0.284108
0.28445
0.284838
0.284958
0.285299
0.285566
0.285543
0.284989
0.284542
0.284845
0.28502
0.285647
0.283817
0.283614
0.284725
0.285073
0.285091
0.284964
0.284934
0.285054
0.285238
0.284512
0.284955
0.285484
0.284894
0.284493
0.285379
0.286879
0.286031
0.28438
0.285348
0.283916
0.283485
0.2865
0.285948
0.284322
0.285783
0.287671
0.286355
0.28463
0.284778
0.284752
0.286069
0.291047
0.291436
0.277016
0.270716
0.334009
0.306184
0.161419
0.179533
0.372393
0.461438
0.288143
0.125984
0.235247
0.332509
0.318578
0.27319
0.276
0.282577
0.289697
0.288508
0.282603
0.284463
0.28578
0.284189
0.283484
0.285672
0.286309
0.285082
0.284779
0.28587
0.285332
0.284141
0.285233
0.285551
0.284868
0.28483
0.285448
0.285165
0.284451
0.285062
0.285479
0.28502
0.285321
0.284963
0.284592
0.285219
0.285397
0.284439
0.282122
0.283512
0.285462
0.284147
0.287038
0.288038
0.283876
0.283736
0.284479
0.283479
0.281662
0.283385
0.28591
0.287798
0.28418
0.285281
0.285101
0.279884
0.292979
0.308612
0.536085
0.641421
0.429664
0.261331
0.427128
0.673396
0.598854
0.327501
0.29806
0.521101
0.602091
0.356278
0.278666
0.290653
0.281602
0.285451
0.285455
0.285887
0.28584
0.286135
0.285228
0.284958
0.284448
0.284196
0.284375
0.285653
0.285426
0.28487
0.284305
0.286485
0.286936
0.285177
0.284541
0.285158
0.285266
0.284852
0.284699
0.28457
0.286362
0.285039
0.283514
0.285514
0.286329
0.284243
0.283841
0.286423
0.286475
0.283031
0.284332
0.286698
0.282887
0.281405
0.28594
0.287468
0.281827
0.282004
0.286893
0.285656
0.278042
0.287712
0.284245
0.277198
0.258358
0.109681
0.249591
0.499355
0.405958
0.148848
0.122885
0.357137
0.480941
0.303869
0.100977
0.204229
0.461484
0.403106
0.269277
0.305087
0.287929
0.28028
0.287509
0.283946
0.282954
0.286156
0.286381
0.283663
0.284435
0.286703
0.284994
0.282861
0.285135
0.286778
0.284102
0.283255
0.284988
0.285344
0.283779
0.284887
0.286319
0.284707
0.28371
0.285445
0.285844
0.284336
0.284253
0.286036
0.285308
0.283891
0.286577
0.287866
0.283555
0.283984
0.284883
0.285468
0.285551
0.28585
0.287296
0.286776
0.284187
0.288009
0.289509
0.283136
0.27841
0.297304
0.286454
0.281021
0.213448
-0.0658827
-0.095187
0.165252
0.282233
0.0938186
-0.107565
-0.00276819
0.241439
0.24208
-0.0042231
-0.111381
0.10276
0.285062
0.200051
0.223188
0.28981
0.29118
0.283591
0.282973
0.285287
0.285938
0.2835
0.283557
0.285871
0.286315
0.28451
0.284474
0.285755
0.285311
0.284067
0.284413
0.284965
0.284635
0.284187
0.28563
0.285617
0.284206
0.284553
0.284436
0.285942
0.285359
0.283779
0.285199
0.286079
0.284477
0.283488
0.285431
0.285363
0.284521
0.284768
0.286715
0.284717
0.284596
0.287291
0.287046
0.282072
0.284575
0.288928
0.285676
0.277051
0.291902
0.283871
0.372202
0.485691
0.275737
0.0858601
0.214434
0.44949
0.424592
0.174938
0.0957025
0.309437
0.482923
0.341456
0.110088
0.150888
0.409996
0.440321
0.290704
0.274185
0.282026
0.28721
0.288198
0.282181
0.285152
0.287326
0.284966
0.283185
0.285785
0.285477
0.284269
0.28474
0.285843
0.285108
0.284656
0.286634
0.286079
0.2839
0.284642
0.285997
0.285145
0.283831
0.283642
0.28518
0.286382
0.284251
0.283893
0.286153
0.285908
0.282798
0.284519
0.287798
0.28375
0.283275
0.286591
0.284805
0.280641
0.281948
0.28739
0.284268
0.279065
0.284286
0.291116
0.275851
0.288964
0.287344
0.394202
0.655917
0.627204
0.365547
0.303346
0.522278
0.680078
0.532871
0.313399
0.36546
0.610925
0.659853
0.428796
0.28171
0.46004
0.67093
0.566411
0.313395
0.270348
0.289272
0.286464
0.283704
0.283047
0.286959
0.286253
0.283469
0.285065
0.286497
0.284364
0.28382
0.286136
0.285615
0.284015
0.284801
0.286418
0.284996
0.283663
0.285426
0.286233
0.284075
0.284032
0.285868
0.285751
0.283891
0.284535
0.286311
0.28495
0.282903
0.284981
0.286119
0.283939
0.284474
0.287504
0.286904
0.283343
0.283146
0.286856
0.285004
0.28155
0.28681
0.291698
0.279436
0.286069
0.175283
0.0994875
0.3282
0.489955
0.318233
0.0994966
0.170678
0.420686
0.454583
0.220517
0.0865525
0.263046
0.472452
0.383668
0.140014
0.123072
0.36851
0.473803
0.28034
0.266949
0.302018
0.28023
0.282249
0.287496
0.286161
0.28232
0.284077
0.286658
0.285577
0.283592
0.285152
0.286552
0.28408
0.283868
0.285357
0.285795
0.284108
0.284318
0.286123
0.285334
0.283813
0.283977
0.284678
0.286218
0.284891
0.283893
0.285252
0.28636
0.2854
0.284553
0.285483
0.287147
0.282284
0.283005
0.287173
0.287079
0.284981
0.287586
0.287945
0.285188
0.281316
0.289212
0.287865
0.266618
0.131611
-0.0989094
-0.0233743
0.235248
0.252854
0.00747912
-0.112576
0.0848461
0.280705
0.167866
-0.0742708
-0.0634639
0.18076
0.277033
0.0750605
-0.107569
0.0143044
0.243367
0.265067
0.259231
0.292198
0.290676
0.279625
0.284386
0.288198
0.285501
0.282317
0.285311
0.28653
0.283884
0.283184
0.286084
0.286551
0.283124
0.283663
0.286196
0.285156
0.283865
0.285088
0.286175
0.284504
0.285734
0.283545
0.284855
0.286325
0.284983
0.283395
0.285801
0.287184
0.285131
0.283752
0.28619
0.284965
0.282689
0.284306
0.287065
0.283801
0.283123
0.28648
0.289927
0.278547
0.285858
0.28398
0.295355
0.417186
0.215331
0.0829373
0.292482
0.483302
0.362633
0.119413
0.142295
0.391171
0.473639
0.258991
0.0904203
0.23092
0.458798
0.409379
0.166645
0.108422
0.328037
0.474785
0.302831
0.263012
0.295393
0.285722
0.28186
0.28309
0.288517
0.285316
0.283404
0.285225
0.287054
0.284177
0.283616
0.286061
0.286148
0.28388
0.28469
0.286291
0.285279
0.283438
0.285358
0.286237
0.286264
0.285303
0.283826
0.284839
0.286424
0.284659
0.283521
0.283219
0.284619
0.284014
0.283571
0.288436
0.288268
0.282217
0.284272
0.285745
0.282545
0.279374
0.286747
0.286705
0.288994
0.264968
0.327598
0.639525
0.565325
0.310965
0.346174
0.594369
0.670669
0.447435
0.279623
0.434038
0.666261
0.604834
0.350908
0.306568
0.542103
0.679017
0.510113
0.294184
0.405646
0.578361
0.331723
0.262327
0.287452
0.287339
0.287752
0.281026
0.284783
0.286825
0.28485
0.282982
0.286608
0.286637
0.2839
0.283213
0.287648
0.286861
0.28391
0.284462
0.286455
0.284873
0.283811
0.28528
0.284464
0.286301
0.285235
0.283554
0.285212
0.286381
0.284593
0.283949
0.286061
0.286533
0.283926
0.283415
0.286084
0.284657
0.282348
0.285887
0.288837
0.283516
0.280651
0.287335
0.290634
0.270781
0.290931
0.412469
0.454643
0.247073
0.0853794
0.242829
0.466495
0.40167
0.151285
0.11439
0.351703
0.485452
0.303042
0.0929461
0.188856
0.436968
0.446177
0.191666
0.10655
0.270326
0.289198
0.290906
0.282091
0.280547
0.289704
0.286318
0.282555
0.284627
0.287285
0.283983
0.282674
0.285553
0.286906
0.283836
0.283299
0.285183
0.28535
0.283623
0.284929
0.286363
0.284753
0.283662
0.283933
0.284595
0.286092
0.285215
0.283734
0.28515
0.286264
0.286606
0.285478
0.285145
0.286158
0.282506
0.282648
0.288689
0.286582
0.28333
0.28631
0.290873
0.285194
0.28269
0.284479
0.303102
0.242953
0.103706
0.256758
0.196382
-0.058825
-0.0772832
0.159423
0.282844
0.0963743
-0.108206
-0.00728972
0.242404
0.243248
-0.00749478
-0.11022
0.101459
0.288708
0.152495
-0.0969822
-0.0261642
0.251236
0.299476
0.285482
0.282104
0.282824
0.287561
0.285269
0.283137
0.285433
0.287004
0.284251
0.283576
0.285978
0.286233
0.283044
0.283473
0.286112
0.285452
0.283724
0.285007
0.286146
0.284767
0.284929
0.283908
0.28526
0.286134
0.284312
0.284182
0.285653
0.284649
0.282706
0.284473
0.286521
0.286347
0.284306
0.285309
0.287157
0.284882
0.281648
0.285749
0.287014
0.283735
0.277647
0.307201
0.262049
0.145452
0.365904
0.482154
0.278786
0.0924665
0.210834
0.448658
0.427757
0.180144
0.0941737
0.308842
0.485446
0.344109
0.107287
0.151118
0.407477
0.471492
0.228335
0.110314
0.276783
0.285947
0.286475
0.288662
0.280048
0.285537
0.287261
0.283808
0.282612
0.286702
0.286554
0.28362
0.283521
0.286836
0.286269
0.285123
0.285249
0.286217
0.284521
0.283986
0.285649
0.285911