# vtk DataFile Version 3.0
PFC-RG simulation results
ASCII
DATASET STRUCTURED_POINTS
DIMENSIONS 64 64 1
ORIGIN 0 0 0
SPACING 1 1 1
POINT_DATA 4096
SCALARS psi double
LOOKUP_TABLE default
0.484137
0.539832
0.507814
0.432257
0.4654
0.541375
0.530933
0.48493
0.506694
0.549193
0.525791
0.482654
0.522991
0.588733
0.545824
0.446994
0.477297
0.610393
0.602836
0.449794
0.417285
0.572915
0.638745
0.504701
0.422962
0.528406
0.621843
0.542224
0.434485
0.472003
0.578242
0.588592
0.517669
0.490216
0.517968
0.525972
0.496726
0.469728
0.466575
0.476947
0.51161
0.554664
0.447506
0.157703
0.0505672
0.32359
0.579922
0.534168
0.489152
0.612496
0.485911
-0.0441262
-0.324361
0.0705884
0.567063
0.604734
0.499059
0.584677
0.495565
0.0155993
-0.29599
-0.00644757
0.472603
0.618516
-0.0129424
0.0902181
0.351094
0.531612
0.425898
0.126746
0.0360294
0.316317
0.562132
0.380521
0.0396142
0.0689389
0.427063
0.54972
0.24188
-0.0174161
0.168042
0.491837
0.442902
0.137574
0.075517
0.31615
0.443702
0.320185
0.225451
0.255842
0.250864
0.22589
0.335628
0.452472
0.324622
0.104026
0.170178
0.451377
0.472786
0.176528
0.0708654
0.371713
0.60005
0.362504
0.0395535
0.152432
0.441705
0.383505
0.192624
0.300606
0.457663
0.330553
0.226331
0.411161
0.481519
0.156555
-0.0565556
0.228424
0.51283
0.356474
0.178107
0.362933
0.511288
0.269
0.0228331
0.166613
0.438988
0.446509
-0.342296
-0.251002
0.136554
0.441307
0.270658
-0.211319
-0.338435
0.105591
0.45939
0.160541
-0.333218
-0.248947
0.276171
0.41251
-0.0434539
-0.363674
-0.0603078
0.365189
0.248145
-0.181662
-0.239289
0.10893
0.288351
0.103193
-0.0721276
-0.0575845
-0.0228534
0.01061
0.157264
0.231108
-0.0137576
-0.294993
-0.134091
0.295043
0.331423
-0.0797841
-0.229458
0.182983
0.478652
0.109762
-0.357766
-0.161321
0.388764
0.549625
0.422772
0.446942
0.383821
-0.0343013
-0.296251
0.0390347
0.496301
0.534262
0.439066
0.551096
0.480711
-0.0235374
-0.345597
-0.00255609
0.506741
0.589258
0.44114
0.438875
0.453618
0.242643
-0.00182914
0.039175
0.294193
0.511343
0.415423
0.0923333
0.00653091
0.328415
0.583165
0.357564
-0.00136778
0.077483
0.469226
0.554505
0.211302
-0.00210374
0.244875
0.54728
0.430352
0.107978
0.0944006
0.37141
0.48613
0.316915
0.184706
0.222987
0.269419
0.28586
0.36678
0.387172
0.183057
-0.0117405
0.152226
0.502996
0.508791
0.126578
-0.0522309
0.266424
0.524823
0.242429
-0.103362
0.0911174
0.487581
0.4919
0.342878
0.461495
0.489774
0.0811046
-0.220134
0.0859638
0.516023
0.504559
0.369868
0.50323
0.50702
0.0694367
-0.232793
0.0782512
0.497666
0.465115
0.280155
0.364869
0.498893
0.36963
0.422572
0.508699
0.509029
0.44811
0.465013
0.523705
0.534282
0.520695
0.523707
0.522802
0.515269
0.522547
0.532394
0.521765
0.511023
0.527975
0.545095
0.526847
0.497153
0.514974
0.560859
0.550703
0.485092
0.478611
0.564889
0.591449
0.491764
0.431236
0.530299
0.613652
0.513707
0.39093
0.463144
0.625329
0.583175
0.313612
0.175456
0.390671
0.613641
0.5199
0.402522
0.535273
0.539686
0.132826
-0.143506
0.174135
0.572252
0.498129
0.326593
0.475115
0.518529
0.103535
-0.198995
0.112214
0.526199
0.483755
0.341841
0.489591
0.50203
0.0709532
-0.218679
0.0831815
0.487328
0.513724
0.269298
0.544016
0.370953
-0.00249632
0.0643715
0.478933
0.58074
0.221466
-0.0285375
0.213913
0.570255
0.488758
0.0933561
-0.00589162
0.343149
0.592859
0.348595
-0.00924069
0.0742731
0.465502
0.553824
0.205684
-0.0433216
0.177649
0.519237
0.464187
0.121593
0.00777854
0.25833
0.477518
0.395084
0.208193
0.168478
0.248004
0.268555
0.178727
0.160321
0.345334
0.491842
0.417534
0.403982
0.57551
0.486009
-0.0416001
-0.349126
0.0308098
0.533999
0.566557
0.459847
0.58441
0.516202
-0.0214074
-0.368334
-0.00358224
0.513156
0.56389
0.46675
0.586086
0.506831
0.000866676
-0.263486
0.0959805
0.415339
0.255596
-0.0549208
0.394763
0.201827
-0.309947
-0.242711
0.31354
0.451931
-0.0582296
-0.416364
-0.0622302
0.456494
0.335171
-0.237212
-0.368225
0.145286
0.496079
0.132949
-0.369858
-0.225391
0.330784
0.424281
-0.0784287
-0.385133
-0.0374741
0.404591
0.270856
-0.195636
-0.293162
0.0716491
0.342812
0.191993
-0.107083
-0.201096
-0.0585587
0.122382
0.189273
0.235151
0.360773
0.332007
0.0400267
-0.0717164
0.242053
0.482827
0.285347
0.108658
0.332904
0.484031
0.180805
-0.0476108
0.238153
0.525199
0.342212
0.145532
0.357629
0.502372
0.186054
-0.0553041
0.218653
0.496203
0.345961
0.234488
0.450118
0.406344
-0.09637
0.115818
0.508278
0.379065
-0.00843786
0.0488787
0.469849
0.571896
0.196998
-0.0608711
0.199342
0.574515
0.487598
0.0797459
-0.0086844
0.361731
0.610572
0.349912
-0.00239249
0.109555
0.502356
0.556379
0.201371
0.00879815
0.269006
0.55978
0.440085
0.12569
0.0925541
0.354567
0.518225
0.373796
0.121634
0.042577
0.211079
0.436113
0.484008
0.439381
0.474229
0.359638
-0.0648134
-0.297549
0.0564919
0.526438
0.589441
0.512839
0.609796
0.492044
-0.0662467
-0.40128
-0.0146457
0.529477
0.609795
0.519238
0.617633
0.509924
-0.0453017
-0.388489
-0.0270974
0.487132
0.570895
0.518973
0.627333
0.498453
0.0252439
0.467852
0.573197
0.541056
0.454265
0.47598
0.540897
0.539594
0.505715
0.505324
0.523058
0.523732
0.514963
0.516138
0.523853
0.524457
0.517578
0.51539
0.525744
0.533646
0.521433
0.50416
0.516114
0.547524
0.542594
0.499661
0.491911
0.545291
0.56896
0.519167
0.490858
0.527774
0.527593
0.468738
0.497934
0.571664
0.465817
0.301059
0.369583
0.465323
0.261084
0.0757734
0.282651
0.508708
0.351375
0.185221
0.382818
0.514889
0.207884
-0.0351353
0.231063
0.519355
0.348567
0.145036
0.344487
0.514383
0.244752
0.00304159
0.23533
0.50839
0.361521
0.148713
0.286617
0.495415
0.454847
0.325961
0.164993
0.284865
0.515192
0.473003
0.142105
0.0154271
0.328735
0.604216
0.384667
0.000481439
0.0620156
0.475627
0.584219
0.212535
-0.0543629
0.202295
0.576558
0.47734
0.058482
-0.0242134
0.357934
0.601128
0.316427
-0.0504842
0.0796397
0.498307
0.535088
0.143169
-0.0400513
0.252855
0.531553
0.43695
0.248881
0.170329
0.024454
-0.0989673
0.117942
0.481991
0.56342
0.503948
0.575308
0.464508
-0.039737
-0.350124
0.00619561
0.51581
0.579896
0.479522
0.586154
0.514982
-0.0153746
-0.379716
-0.0376891
0.506394
0.604897
0.489326
0.564107
0.541822
0.109939
-0.301803
-0.16272
0.330188
0.617391
-0.0857127
-0.26702
0.023597
0.431351
0.348874
-0.176526
-0.369626
0.096279
0.503231
0.193424
-0.352954
-0.265692
0.320804
0.476093
-0.0465202
-0.419918
-0.0559108
0.468461
0.325604
-0.25695
-0.359957
0.17601
0.500301
0.098435
-0.389646
-0.189815
0.370012
0.388605
-0.149222
-0.371009
0.046028
0.417391
0.25975
-0.0340113
-0.099852
-0.102036
-0.0741017
0.16813
0.425197
0.394654
0.3247
0.481355
0.484861
0.0665412
-0.216564
0.0977687
0.511532
0.472532
0.322285
0.472417
0.520285
0.108532
-0.212412
0.0798067
0.511035
0.479661
0.281249
0.392394
0.529126
0.260964
-0.125335
-0.0948675
0.289529
0.504232
-0.0713796
-0.0811995
0.233033
0.557012
0.495736
0.11487
-0.0289302
0.304139
0.603528
0.390875
0.00305878
0.062503
0.477635
0.589876
0.224411
-0.0360946
0.220184
0.586913
0.486674
0.0822678
0.0152919
0.390935
0.613755
0.331743
-0.00159889
0.146459
0.531653
0.529433
0.156167
0.0275512
0.32286
0.530407
0.366624
0.187676
0.235611
0.326497
0.397577
0.497654
0.387568
-0.0258648
-0.227518
0.12951
0.536973
0.499743
0.367779
0.511423
0.516608
0.0619855
-0.265526
0.0537316
0.517999
0.523062
0.377288
0.506651
0.532778
0.0866704
-0.293911
-0.0321069
0.477313
0.579621
0.378971
0.342235
0.481231
0.473413
0.306088
0.422858
0.503718
0.492936
0.49491
0.518619
0.518687
0.511208
0.517635
0.523783
0.521859
0.519593
0.518103
0.516517
0.520164
0.526447
0.523535
0.514177
0.514553
0.525831
0.530204
0.521085
0.5133
0.517363
0.528078
0.532398
0.519793
0.497974
0.50578
0.551184
0.548832
0.445745
0.380279
0.488191
0.600297
0.541294
0.499146
0.578432
0.428983
-0.0665222
-0.316096
0.0668584
0.540412
0.560311
0.450319
0.573032
0.522023
0.00633722
-0.34817
-0.00586544
0.512324
0.567403
0.442148
0.553011
0.533514
0.0541963
-0.314142
-0.0265537
0.45941
0.524807
0.381051
0.450524
0.577946
0.489265
0.444946
0.592496
0.361486
-0.0267061
0.027043
0.456286
0.60091
0.249536
-0.0416922
0.18098
0.566947
0.507173
0.0906064
-0.0277323
0.34083
0.612706
0.35333
-0.0285815
0.0723194
0.494927
0.567165
0.175031
-0.059917
0.229177
0.580361
0.441807
0.034983
-0.0104717
0.365355
0.577576
0.296533
-0.0623328
0.0353563
0.436725
0.511195
0.147163
-0.0486422
0.238602
0.504614
0.352285
0.198262
0.402789
0.512884
0.165065
-0.105783
0.175143
0.517978
0.398044
0.208962
0.392363
0.519032
0.176683
-0.119028
0.143752
0.504635
0.425075
0.260541
0.418754
0.485836
0.129565
-0.113594
0.153414
0.432833
0.329096
0.2543
0.501824
0.19808
-0.337051
-0.279311
0.295157
0.488486
-0.00252049
-0.410424
-0.096626
0.449052
0.368509
-0.214668
-0.379963
0.136405
0.516193
0.154468
-0.375402
-0.231607
0.356954
0.455546
-0.0903373
-0.414686
-0.0090707
0.481563
0.289638
-0.273774
-0.332769
0.184153
0.465872
0.0952801
-0.32689
-0.136334
0.366503
0.374248
-0.167802
-0.446727
-0.0219258
0.525632
0.600875
0.497593
0.592799
0.507159
-0.0395917
-0.409967
-0.052217
0.5105
0.614624
0.515464
0.609452
0.527277
-0.0212914
-0.402569
-0.0606903
0.489085
0.599713
0.525083
0.618066
0.5001
-0.0206047
-0.275272
0.0746928
0.340308
0.118951
0.122573
0.502106
0.404921
0.0481514
0.077342
0.463552
0.58433
0.240042
-0.0349816
0.188674
0.566476
0.509672
0.106377
-0.00686328
0.352341
0.616324
0.36545
-0.00109463
0.10071
0.509474
0.576755
0.198896
-0.0231607
0.258986
0.598366
0.468317
0.0830264
0.0405091
0.392651
0.594577
0.356036
0.0652641
0.172117
0.503181
0.518319
0.136846
-0.0806083
0.205159
0.503186
0.331115
0.100091
0.294903
0.509341
0.273112
0.0231666
0.249597
0.514832
0.318008
0.0812672
0.289709
0.516318
0.287902
0.0470414
0.269342
0.508865
0.293246
0.063424
0.270922
0.480261
0.298079
0.179091
0.41329
0.460992
0.105647
0.194206
0.45264
0.548608
0.528222
0.532034
0.536615
0.508471
0.498893
0.523327
0.531168
0.512641
0.507219
0.522515
0.529143
0.518078
0.510354
0.518223
0.52874
0.525547
0.512538
0.508854
0.52185
0.532869
0.522085
0.503856
0.510005
0.53442
0.53471
0.512178
0.520079
0.550155
0.520683
0.443348
0.449689
0.532006
0.524071
0.48203
0.56067
0.482976
-0.00161893
-0.360859
-0.0454709
0.497294
0.608636
0.506771
0.595942
0.527511
-0.0084314
-0.39813
-0.062803
0.499514
0.611071
0.511067
0.60488
0.533098
-0.00461654
-0.392832
-0.0733507
0.469203
0.600476
0.530359
0.599658
0.557654
0.276181
0.285593
0.167095
0.255637
0.49401
0.494493
0.156978
-0.0174639
0.28711
0.601319
0.401309
-0.00433974
0.0403179
0.466296
0.588811
0.211753
-0.0618818
0.202964
0.58341
0.4739
0.0462881
-0.0243374
0.372798
0.609454
0.309483
-0.0573434
0.0845023
0.50899
0.54668
0.15035
-0.0404946
0.253946
0.518159
0.335231
0.0622388
0.125516
0.326294
0.407474
0.480416
0.457396
0.123608
-0.141609
0.113223
0.49155
0.444384
0.276112
0.428293
0.523934
0.159103
-0.156503
0.113571
0.509244
0.440643
0.247484
0.403332
0.525841
0.18939
-0.124038
0.119932
0.508727
0.457491
0.208969
0.244712
0.442361
0.471353
0.274505
-0.0347074
0.0112543
0.329257
0.340181
-0.115261
-0.349681
0.0688923
0.494592
0.214776
-0.341531
-0.274844
0.314397
0.480189
-0.044187
-0.420889
-0.0503421
0.476929
0.324088
-0.265021
-0.357562
0.19129
0.513217
0.100012
-0.396481
-0.195721
0.381924
0.424145
-0.129133
-0.405438
-4.03174e-05
0.425018
0.271123
-0.105459
-0.184197
-0.104743
-0.0718045
0.121464
0.433495
0.500769
0.43161
0.532727
0.504763
0.0461993
-0.301421
0.0052273
0.502306
0.551906
0.419206
0.536909
0.537645
0.0577719
-0.327018
-0.0253623
0.49899
0.574026
0.432081
0.525445
0.556798
0.141535
-0.301472
-0.18868
0.301348
0.587963
0.166916
0.135615
0.268604
0.481423
0.484751
0.184477
0.0210371
0.301599
0.596929
0.406035
0.0192507
0.06612
0.477519
0.591517
0.225418
-0.0341074
0.225496
0.590042
0.483773
0.0803227
0.0199982
0.396511
0.614918
0.33297
-0.00180182
0.139404
0.532383
0.55273
0.16559
-0.0231777
0.262248
0.56382
0.477188
0.223978
0.0912125
-0.0188661
-0.105594
0.0899841
0.442856
0.534564
0.467322
0.557095
0.515423
0.0458773
-0.308297
-0.00204103
0.498787
0.54872
0.41042
0.526641
0.538574
0.0753907
-0.30083
-0.00539124
0.497755
0.543891
0.383257
0.481897
0.539592
0.168616
-0.214066
-0.0678226
0.357867
0.522875
0.00455206
0.394628
0.577844
0.514685
0.488613
0.532953
0.536187
0.50932
0.511579
0.528895
0.529188
0.519924
0.515887
0.517185
0.522831
0.5277
0.521163
0.509426
0.513222
0.530408
0.53197
0.511998
0.502726
0.520189
0.535549
0.524624
0.504776
0.498232
0.508418
0.528409
0.524515
0.46667
0.425704
0.489977
0.542274
0.42971
0.321525
0.428214
0.48187
0.176281
-0.0971798
0.138235
0.501977
0.443868
0.266344
0.420397
0.529432
0.167494
-0.166699
0.0903234
0.503161
0.464433
0.284657
0.431935
0.527663
0.151938
-0.188373
0.0628977
0.483648
0.486987
0.331163
0.427136
0.488053
0.228248
-0.00301393
0.468126
0.453428
0.0500897
0.0194266
0.423837
0.582201
0.239466
-0.0433117
0.188682
0.569435
0.496773
0.081103
-0.0240042
0.349941
0.611859
0.341551
-0.0368335
0.0774333
0.503193
0.560019
0.154299
-0.0702167
0.239216
0.585819
0.420404
0.00539047
-0.0203786
0.369621
0.581916
0.299869
-0.0900557
-0.0675488
0.329771
0.591887
0.498332
0.413818
0.558666
0.515299
0.00434808
-0.390082
-0.0816174
0.485457
0.616201
0.507891
0.594233
0.547468
0.0232613
-0.392206
-0.0841418
0.484197
0.609207
0.503238
0.593664
0.538694
0.0174388
-0.36661
-0.049853
0.469312
0.556369
0.476744
0.58755
0.4994
-0.00195776
0.293004
0.539971
0.258426
-0.314692
-0.302435
0.270743
0.472822
-0.018767
-0.414463
-0.0842628
0.45271
0.351025
-0.230222
-0.374574
0.148109
0.511942
0.138255
-0.381405
-0.221695
0.362556
0.439954
-0.11185
-0.414298
0.00696971
0.476357
0.254963
-0.299184
-0.329401
0.187597
0.456678
0.0889419
-0.367376
-0.268982
0.23088
0.432192
0.134884
-0.0559681
0.237762
0.511618
0.296476
0.0298045
0.23466
0.510355
0.31241
0.032103
0.224104
0.509849
0.341709
0.0897085
0.277859
0.516011
0.288317
0.0125123
0.221214
0.505572
0.345048
0.134077
0.331989
0.499586
0.215035
-0.0151484
0.243414
0.454698
0.177733
0.497783
0.624972
0.394335
-0.00823027
0.0380677
0.466705
0.591625
0.223561
-0.0498727
0.195023
0.572207
0.49772
0.0944964
-0.00268546
0.359956
0.611852
0.355587
-0.00128271
0.108282
0.509082
0.563516
0.189598
-0.0142845
0.269493
0.58442
0.44265
0.0846207
0.0625626
0.385207
0.556915
0.344374
0.0863461
0.18009
0.497362
0.48146
-0.0265367
-0.374003
-0.0463855
0.489062
0.595646
0.485557
0.581752
0.555828
0.0371957
-0.40454
-0.117568
0.467751
0.619166
0.513874
0.599625
0.552978
0.0185997
-0.40875
-0.099917
0.477621
0.615609
0.524592
0.61138
0.524049
-0.0162975
-0.37597
-0.0353341
0.467837
0.517829
0.175821
0.389476
0.524318
0.494389
0.485906
0.529194
0.528056
0.499866
0.505941
0.523352
0.51816
0.511956
0.52273
0.528316
0.517392
0.51171
0.522539
0.531708
0.523439
0.509829
0.511571
0.528864
0.536103
0.514417
0.491098
0.510982
0.552494
0.536556
0.474294
0.47819
0.551346
0.557717
0.51216
0.562447
0.553764
0.239297
-0.049988
0.14558
0.500191
0.457089
0.261344
0.39292
0.537375
0.226407
-0.112416
0.108666
0.502054
0.438072
0.214524
0.362595
0.531574
0.228178
-0.096927
0.135348
0.507932
0.415214
0.189897
0.342363
0.512894
0.247549
-0.0332496
0.168733
0.512072
0.512083
-0.255381
-0.0325574
0.348444
0.561885
0.426422
0.0904769
-0.00276226
0.316791
0.587784
0.371609
-0.00783883
0.0569522
0.471835
0.574314
0.198778
-0.055542
0.214553
0.577397
0.456029
0.0435171
-0.00895042
0.378501
0.587893
0.279655
-0.0633835
0.0990986
0.49774
0.476933
0.0737995
-0.0481622
0.264724
0.41624
0.170112
0.0662486
0.33235
0.501231
0.442442
0.502339
0.526187
0.128095
-0.28053
-0.0629643
0.454679
0.570382
0.436975
0.535608
0.569291
0.10674
-0.333162
-0.0772503
0.472633
0.584243
0.450388
0.549915
0.558351
0.0746512
-0.351658
-0.0782724
0.479593
0.613685
0.469547
0.487275
0.512714
0.2563
-0.100371
-0.0416155
0.240457
0.438143
0.239925
-0.215926
-0.326531
0.123899
0.48523
0.172079
-0.350642
-0.254773
0.315938
0.453655
-0.0627565
-0.412779
-0.0451476
0.454409
0.296211
-0.266951
-0.349365
0.170624
0.464575
0.0626457
-0.398741
-0.196731
0.318866
0.293205
-0.218355
-0.361736
0.0269723
0.173897
-0.187275
-0.315018
0.123775
0.481306
0.448508
0.460875
0.49893
0.135034
-0.28516
-0.0883992
0.435057
0.54666
0.378198
0.464291
0.547398
0.150245
-0.270621
-0.0422735
0.466417
0.536935
0.371576
0.477696
0.543698
0.132261
-0.260511
-0.0130034
0.47461
0.526663
0.334805
0.373667
0.468893
0.260829
0.361836
0.35014
0.437397
0.499302
0.383548
0.127102
0.0664366
0.355172
0.591581
0.379879
0.0221277
0.0851316
0.477068
0.575405
0.222237
-0.0234078
0.221722
0.56894
0.47448
0.0881066
0.0119374
0.360652
0.58397
0.324444
-0.00690779
0.117752
0.47954
0.458085
0.0881532
0.0129146
0.320979
0.390915
0.0719118
-0.00351208
0.324202
0.385876
0.0636499
0.0655902
0.432097
0.482311
0.263095
0.346928
0.530751
0.248162
-0.164717
-0.00681968
0.45236
0.501463
0.307564
0.411965
0.536321
0.188536
-0.194779
0.0229707
0.474051
0.495298
0.321149
0.436295
0.515818
0.142515
-0.211327
0.00892422
0.450062
0.532058
0.316078
0.487174
0.521277
0.429144
0.437945
0.532716
0.552744
0.506297
0.501143
0.532055
0.535401
0.514231
0.511604
0.531372
0.541083
0.524808
0.505063
0.517635
0.547854
0.541263
0.499807
0.49969
0.55237
0.553794
0.485023
0.479833
0.559791
0.537131
0.394667
0.400936
0.569132
0.558702
0.354851
0.380592
0.591889
0.384641
-0.154094
-0.166415
0.382512
0.65194
0.522872
0.53723
0.579754
0.171833
-0.311665
-0.1392
0.429289
0.622237
0.507541
0.573435
0.575183
0.0998151
-0.349517
-0.104072
0.454002
0.600375
0.494379
0.575106
0.537773
0.0577138
-0.299612
-0.00510742
0.464758
0.527118
-0.116964
0.276707
0.29986
0.0182005
0.0614822
0.435305
0.521478
0.169495
-0.0495767
0.214267
0.549787
0.441002
0.0689148
0.0181804
0.364434
0.561525
0.302071
0.00642072
0.138827
0.470907
0.472331
0.173069
0.0632127
0.260825
0.403065
0.307534
0.180831
0.146793
0.134336
0.16674
0.2443
0.193541
0.0423827
0.134952
0.433571
0.394519
0.0188514
-0.000357119
0.360658
0.394135
0.114081
0.157275
0.448586
0.401987
0.151574
0.257592
0.503886
0.32786
0.0198709
0.175407
0.498243
0.390331
0.134144
0.283647
0.514867
0.292991
-0.00466522
0.180021
0.481464
0.370306
0.193604
0.366197
0.459626
0.131714
-0.103856
0.296233
0.227139
-0.204864
-0.195829
0.270483
0.3847
-0.0799258
-0.382453
-0.039802
0.412108
0.27367
-0.23111
-0.31741
0.137528
0.419029
0.0938556
-0.313433
-0.172486
0.263019
0.298249
-0.0826814
-0.25706
-0.025026
0.17131
0.0664221
-0.0903972
-0.115254
-0.119821
-0.116952
-0.0492175
-0.0714479
-0.238271
-0.20836
0.155199
0.414372
0.349931
0.333042
0.397219
0.124353
-0.280694
-0.177106
0.323366
0.558054
0.497167
0.562416
0.553388
0.0725246
-0.397048
-0.167539
0.41587
0.597481
0.488821
0.570787
0.565217
0.0617443
-0.400191
-0.146493
0.421343
0.58196
0.493588
0.553454
0.450753
-0.045688
0.356625
0.601207
0.480015
0.0859727
0.0751186
0.452018
0.562939
0.223131
-0.00785865
0.229147
0.552147
0.468317
0.116233
0.0344749
0.337066
0.556735
0.356122
0.053396
0.11754
0.425
0.475927
0.208366
0.0717972
0.236057
0.376108
0.293769
0.194735
0.212379
0.210452
0.180273
0.235354
0.26588
0.138442
0.0752358
0.26909
0.475266
0.495535
0.509831
0.507046
0.240882
-0.0492145
0.0923301
0.444667
0.447515
0.243155
0.346372
0.522109
0.254535
-0.0976893
0.0862723
0.486881
0.444384
0.19492
0.322377
0.534613
0.271138
-0.0832225
0.103353
0.484607
0.420168
0.170424
0.275081
0.466922
0.302961
0.415405
0.572569
0.579002
0.382201
0.343401
0.514724
0.605936
0.518673
0.437834
0.476171
0.557409
0.57664
0.513741
0.45571
0.498561
0.598944
0.5864
0.457732
0.432545
0.573843
0.636639
0.488373
0.38781
0.51152
0.633637
0.539538
0.407995
0.460709
0.571602
0.563508
0.496058
0.485834
0.519211
0.553105
0.52316
0.371594
0.260873
0.392291
0.553672
0.442463
0.308797
0.488416
0.635119
0.269542
-0.20539
-0.0587763
0.452842
0.577405
0.420209
0.507892
0.605204
0.215442
-0.255496
-0.0822344
0.448957
0.582447
0.442366
0.535306
0.597621
0.188081
-0.249314
-0.0610663
0.458843
0.628048
-0.0514024
0.137105
0.335937
0.302459
0.186594
0.143619
0.20221
0.315179
0.350271
0.227737
0.121876
0.220144
0.369382
0.326663
0.195145
0.222483
0.315628
0.266973
0.200943
0.309511
0.399206
0.235397
0.0827591
0.251813
0.479043
0.343301
0.0426721
0.0836948
0.402039
0.482539
0.202315
0.0174783
0.234851
0.555689
0.482157
0.0404825
-0.168814
0.144684
0.458289
0.30433
0.0928289
0.320593
0.579544
0.254343
-0.26154
-0.147193
0.38601
0.528931
0.329439
0.371858
0.519312
0.243644
-0.185096
-0.0777227
0.382163
0.50764
0.379914
0.45869
0.524005
0.188821
-0.167509
0.00110629
0.407047
0.448501
-0.176608
0.0173687
0.250171
0.256434
0.0986176
-0.0542478
-0.0449062
0.120821
0.201093
0.03384
-0.13829
-0.0343121
0.1613
0.126875
-0.0305267
-0.0149094
0.072879
0.00436527
-0.0557098
0.108262
0.21997
-0.019125
-0.249011
-0.0266067
0.317055
0.168113
-0.269919
-0.271523
0.182083
0.350666
-0.0572721
-0.400522
-0.125201
0.385142
0.38368
-0.10216
-0.288117
0.125163
0.437587
0.110818
-0.290962
-0.0616741
0.435486
0.432862
0.101788
0.135046
0.395986
0.25095
-0.135645
-0.0912781
0.321327
0.463384
0.292499
0.296436
0.415799
0.222056
-0.0716766
0.0176723
0.300431
0.338248
0.253029
0.34235
0.396525
0.129961
0.287505
0.347617
0.449096
0.490986
0.423925
0.269589
0.210382
0.344981
0.461009
0.339911
0.162019
0.22124
0.39335
0.384516
0.253782
0.257068
0.329802
0.275214
0.21747
0.344885
0.445957
0.261042
0.0585738
0.21549
0.502108
0.413707
0.0675407
0.0356684
0.383666
0.544115
0.245247
-0.0455975
0.122825
0.49583
0.51868
0.200428
0.0949922
0.397107
0.588901
0.285742
-0.0748022
0.0698575
0.483279
0.588214
0.446581
0.466308
0.515685
0.234209
-0.133424
-0.0631684
0.355371
0.579767
0.525172
0.531747
0.53422
0.228021
-0.122443
-0.0508234
0.290782
0.475781
0.487767
0.511466
0.452181
0.206326
0.543079
0.347378
0.333288
0.539853
0.646107
0.46304
0.293285
0.436477
0.662624
0.589776
0.34602
0.353941
0.585795
0.64902
0.467437
0.379935
0.516386
0.619684
0.539124
0.452235
0.502774
0.568668
0.539374
0.49149
0.512315
0.547244
0.534959
0.508236
0.514826
0.538785
0.54389
0.5302
0.508955
0.497055
0.503273
0.511335
0.508131
0.505123
0.496888
0.465936
0.453625
0.482982
0.464697
0.385663
0.412317
0.553445
0.547178
0.338929
0.241991
0.411288
0.553291
0.396365
0.202038
0.340473
0.569571
0.451126
0.195162
0.260728
0.515944
0.538827
0.341717
0.265885
0.381951
0.47899
0.298018
-0.125854
-0.140887
0.276798
0.487314
0.175953
-0.127121
0.0863042
0.466177
0.386186
-0.00716439
-0.0412376
0.341532
0.506433
0.189104
-0.0642445
0.176697
0.523665
0.419312
0.0428611
0.0113728
0.380139
0.573212
0.29367
-0.00950857
0.145082
0.518378
0.523088
0.147173
-0.0168625
0.297213
0.604332
0.418083
0.0302006
0.0518354
0.42994
0.539708
0.199104
-0.0494567
0.191643
0.575691
0.539762
0.115618
-0.11389
0.139952
0.438843
0.328366
0.0872744
0.2246
0.583851
0.557663
0.0477357
-0.289777
0.00631185
0.46498
0.448124
0.18222
0.256849
0.549204
0.484064
0.0430487
-0.178648
0.110383
0.498209
0.195535
-0.235563
-0.199468
0.253401
0.421824
0.0298631
-0.308219
-0.0594736
0.359323
0.246459
-0.223256
-0.276596
0.177686
0.388743
-0.00620524
-0.364431
-0.0903491
0.38351
0.282811
-0.241928
-0.342692
0.156652
0.465845
0.0831652
-0.386538
-0.191002
0.367839
0.401558
-0.151152
-0.417905
0.0251287
0.478854
0.225524
-0.318573
-0.269392
0.299415
0.479168
-0.0138786
-0.40148
-0.0813234
0.456926
0.407113
-0.128849
-0.317747
0.107136
0.441143
0.158635
-0.240102
-0.0703172
0.424309
0.466037
-0.0368762
-0.332361
0.0143673
0.440099
0.292428
-0.1121
-0.0463188
0.3906
0.457658
0.00167295
-0.299603
-0.00518717
0.420548
0.429331
0.263247
0.300497
0.512316
0.566703
0.339123
0.157471
0.308391
0.549384
0.466455
0.165517
0.126571
0.420134
0.56276
0.29555
0.034325
0.205624
0.540812
0.485403
0.108994
0.0123411
0.35911
0.592713
0.322617
-0.0298791
0.0999244
0.511281
0.546863
0.145054
-0.0574141
0.260542
0.590276
0.403301
0.00526338
0.0436888
0.464942
0.607216
0.258282
-0.0297145
0.177544
0.539029
0.49454
0.141586
0.0685216
0.407086
0.613474
0.337564
-0.0179897
0.0685138
0.441103
0.541359
0.283566
0.143782
0.364494
0.565628
0.354233
-0.00590744
0.0361709
0.42638
0.582277
0.31984
0.0984295
0.269208
0.537463
0.405872
0.61786
0.582713
0.396984
0.36116
0.508507
0.598549
0.521419
0.43447
0.474559
0.560017
0.555973
0.490833
0.479891
0.528619
0.550153
0.519487
0.499995
0.519807
0.537031
0.525172
0.513687
0.523349
0.529633
0.519214
0.513227
0.525063
0.533367
0.523253
0.51357
0.52277
0.534566
0.524665
0.507624
0.508098
0.516136
0.515432
0.517015
0.5253
0.520248
0.499783
0.490185
0.50516
0.523685
0.518825
0.497255
0.484088
0.480422
0.472758
0.465712
0.482763
0.531835
0.560777
0.519566
0.458193
0.433859
0.432218
0.448076
0.48207
0.511796
0.531365
0.533922
0.519479
0.515719
0.046829
0.516493
0.39441
-0.11305
-0.196666
0.275108
0.565278
0.244513
-0.143431
0.030818
0.486581
0.502288
0.0748076
-0.0909285
0.274769
0.587615
0.357437
-0.0293186
0.0556136
0.477411
0.566521
0.191661
-0.0391125
0.244633
0.593604
0.456562
0.0546652
0.0267589
0.416769
0.606974
0.298459
-0.0157084
0.164288
0.553573
0.530315
0.118722
-0.0400343
0.304971
0.612096
0.4005
0.0144881
0.070595
0.469672
0.55809
0.177795
-0.0741218
0.208106
0.597237
0.506374
0.0984381
0.0171379
0.370559
0.557311
0.24729
-0.0555282
0.157829
0.569277
0.55989
0.168296
0.00872047
0.315603
0.576187
0.367446
0.0474427
0.00838198
0.477087
0.332846
-0.222381
-0.315631
0.202631
0.503744
0.0925503
-0.387257
-0.173326
0.391052
0.396224
-0.172078
-0.402831
0.0751641
0.494503
0.179259
-0.363983
-0.261788
0.323761
0.454896
-0.0780185
-0.420764
-0.023942
0.481407
0.289894
-0.293521
-0.340517
0.223177
0.500228
0.050031
-0.409799
-0.145959
0.427973
0.406674
-0.175734
-0.399814
0.0859847
0.508789
0.199638
-0.339333
-0.239677
0.340827
0.471583
-0.0628934
-0.420526
-0.035213
0.494617
0.34906
-0.227539
-0.317419
0.208983
0.48533
0.0550586
-0.380987
-0.104155
0.464251
0.437281
-0.141661
-0.366258
0.103994
0.499966
0.180265
-0.336528
0.381709
0.602062
0.534833
0.255359
0.201084
0.467517
0.619966
0.37403
0.0873487
0.21454
0.558252
0.552778
0.17895
0.021697
0.334823
0.613443
0.394019
0.0137198
0.0789058
0.486876
0.578783
0.197147
-0.0537244
0.226705
0.590703
0.453808
0.0310391
-0.00474724
0.403853
0.605146
0.277147
-0.0591619
0.129901
0.546154
0.535932
0.123461
-0.0331979
0.313656
0.608609
0.37776
-0.0115306
0.0642313
0.487778
0.591673
0.220245
-0.0354986
0.222608
0.577218
0.454989
0.0411817
-0.00168408
0.404347
0.618015
0.307006
-0.0274875
0.140815
0.532598
0.508232
0.0879844
-0.0613774
0.310087
0.616104
0.361317
-0.0621594
0.501343
0.349552
0.410012
0.578068
0.595147
0.462522
0.405468
0.497708
0.579785
0.541192
0.470371
0.47912
0.535814
0.549048
0.51585
0.499146
0.515899
0.530041
0.524426
0.518585
0.521726
0.521334
0.515912
0.518748
0.528151
0.526349
0.513946
0.512108
0.52591
0.533011
0.52152
0.50996
0.514207
0.52377
0.523602
0.517319
0.516851
0.523403
0.525684
0.516844
0.507651
0.509593
0.515777
0.518308
0.521945
0.524842
0.520308
0.512906
0.5045
0.496007
0.501092
0.518871
0.527797
0.521502
0.509841
0.504563
0.511808
0.512358
0.492144
0.485946
0.520874
0.553129
0.525518
0.466721
0.234816
-0.222982
-0.0753165
0.441127
0.507576
0.0399813
-0.192701
0.187153
0.579094
0.379648
-0.0669452
-0.0383317
0.418992
0.58458
0.215689
-0.0821233
0.169007
0.56924
0.489946
0.0713575
-0.0125474
0.37201
0.615118
0.336748
-0.0141814
0.121556
0.527949
0.560636
0.16965
-0.0235255
0.288405
0.612056
0.433159
0.0323787
0.0433415
0.447186
0.600561
0.259351
-0.0320777
0.191646
0.576166
0.509011
0.0912126
-0.0183779
0.353375
0.614632
0.352527
-0.00579105
0.116985
0.524646
0.566525
0.171846
-0.0370796
0.270305
0.604646
0.440672
0.0593465
0.0837183
0.475126
0.607743
0.274629
0.0129079
0.238588
0.586789
0.18968
-0.321744
-0.176823
0.383784
0.446261
-0.104417
-0.391009
0.0457064
0.504616
0.243612
-0.327491
-0.299125
0.282965
0.48768
-0.0143862
-0.422193
-0.0845776
0.460151
0.342674
-0.249352
-0.371573
0.171114
0.514982
0.113389
-0.393496
-0.199126
0.387556
0.43418
-0.133436
-0.414537
0.0370908
0.506521
0.250696
-0.323298
-0.303812
0.277633
0.495626
0.00292602
-0.416407
-0.0938351
0.46144
0.37
-0.223596
-0.379127
0.147144
0.513934
0.137308
-0.375397
-0.19913
0.388462
0.450112
-0.117624
-0.416624
0.0271791
0.507908
0.264064
-0.304446
-0.279638
0.298945
0.49792
-0.00932723
-0.413804
-0.0676319
0.474363
0.461357
0.205391
0.274191
0.563483
0.592859
0.281629
0.109633
0.354339
0.620491
0.456097
0.0961547
0.108517
0.47676
0.602864
0.262544
-0.0159897
0.211096
0.581666
0.494627
0.0762139
-0.0117637
0.371487
0.613771
0.323497
-0.0419373
0.0977138
0.520627
0.553722
0.143071
-0.0603151
0.265814
0.604331
0.419491
0.00669151
0.0228605
0.443015
0.599823
0.244344
-0.0588928
0.170983
0.569271
0.505302
0.082392
-0.0262365
0.352441
0.614026
0.339232
-0.0359489
0.0854271
0.5092
0.558827
0.154389
-0.0588518
0.26106
0.604103
0.414976
-0.0163765
-0.00522498
0.430036
0.58423
0.19627
-0.119868
0.144007
0.563712
0.443218
0.599394
0.556026
0.417305
0.415604
0.539367
0.589137
0.508271
0.443692
0.488954
0.557689
0.549594
0.498883
0.489933
0.522321
0.53834
0.523775
0.511902
0.516802
0.52183
0.520058
0.521523
0.52563
0.52121
0.5126
0.515433
0.527309
0.528933
0.517064
0.510852
0.520086
0.529336
0.523399
0.511704
0.512719
0.524611
0.52883
0.519755
0.511882
0.515732
0.523194
0.52178
0.513851
0.51332
0.523535
0.529711
0.520337
0.506057
0.506594
0.521259
0.527921
0.517963
0.509473
0.517489
0.528927
0.51585
0.483947
0.483906
0.529596
0.553499
0.510346
0.464665
0.496152
0.561314
0.075733
0.535917
0.383108
-0.112733
-0.140764
0.346358
0.578391
0.208418
-0.1488
0.0832275
0.534238
0.498434
0.0562616
-0.073803
0.315929
0.609349
0.354406
-0.0290259
0.0724439
0.497376
0.576362
0.193216
-0.0385331
0.249015
0.60056
0.462125
0.0564132
0.0274843
0.421335
0.614324
0.300864
-0.0222756
0.156927
0.553861
0.53817
0.133943
-0.0175526
0.324824
0.618148
0.396201
0.0108518
0.074179
0.485254
0.590301
0.223038
-0.0310864
0.231847
0.592011
0.477853
0.0762848
0.0314851
0.416861
0.616893
0.311793
-0.00704011
0.171822
0.560281
0.545501
0.170814
0.0496421
0.378015
0.630055
0.411606
0.0899337
0.0196849
0.50426
0.310768
-0.269397
-0.314797
0.243476
0.506252
0.0460164
-0.403369
-0.123878
0.434946
0.374815
-0.212024
-0.389752
0.12515
0.512465
0.154979
-0.378183