# vtk DataFile Version 3.0
PFC-RG simulation results
ASCII
DATASET STRUCTURED_POINTS
DIMENSIONS 64 64 1
ORIGIN 0 0 0
SPACING 1 1 1
POINT_DATA 4096
SCALARS psi double
LOOKUP_TABLE default
0.493498
0.534361
0.509884
0.446878
0.473709
0.539296
0.536294
0.496261
0.501
0.534136
0.536707
0.51023
0.513383
0.549914
0.550307
0.499096
0.489663
0.566361
0.593864
0.498436
0.437578
0.539752
0.629215
0.535833
0.431266
0.507744
0.623871
0.559984
0.427332
0.45464
0.583276
0.601845
0.513174
0.473674
0.506217
0.521624
0.490307
0.453913
0.44851
0.468492
0.51144
0.551046
0.423121
0.0948418
-0.0398633
0.256508
0.57118
0.555828
0.498819
0.611278
0.489398
-0.0471135
-0.350371
0.0357079
0.552574
0.613502
0.510603
0.590026
0.503378
0.0263365
-0.299413
-0.0306122
0.449477
0.616915
-0.000108339
0.0532223
0.314006
0.534111
0.449544
0.131092
0.0181999
0.305632
0.571612
0.395102
0.0471881
0.0747631
0.436358
0.563163
0.256094
-0.0092405
0.171423
0.51107
0.478416
0.138314
0.0237221
0.288626
0.490586
0.354111
0.170877
0.202129
0.297965
0.298614
0.325208
0.401728
0.319942
0.12481
0.160113
0.423468
0.471422
0.209506
0.112739
0.39284
0.588183
0.333177
0.018679
0.149018
0.443396
0.373546
0.171402
0.287229
0.455714
0.316629
0.196664
0.396756
0.49408
0.165466
-0.0759082
0.200861
0.508954
0.369539
0.181191
0.356016
0.510296
0.266145
-0.00541719
0.121351
0.421649
0.47404
-0.317103
-0.272942
0.107394
0.44674
0.302057
-0.196318
-0.353953
0.0911861
0.472067
0.181936
-0.333471
-0.26299
0.280811
0.439664
-0.029233
-0.38273
-0.0786625
0.389501
0.289423
-0.194711
-0.29944
0.100567
0.353485
0.119062
-0.163342
-0.11643
0.0598299
0.116223
0.142959
0.157405
-0.0302025
-0.272164
-0.135843
0.283861
0.350847
-0.0358645
-0.179538
0.226793
0.493415
0.0892218
-0.385203
-0.168491
0.400576
0.564794
0.436747
0.468719
0.407292
-0.0357064
-0.325041
0.0172121
0.502135
0.548782
0.441078
0.551145
0.49699
-0.00429356
-0.34747
-0.0173482
0.504074
0.597503
0.437062
0.424221
0.46787
0.303441
0.0225919
0.0462935
0.292494
0.521047
0.439804
0.110839
0.00471577
0.321307
0.590541
0.370718
-0.00588602
0.0586254
0.464044
0.569821
0.217527
-0.0254231
0.219301
0.555447
0.45546
0.0991217
0.0573933
0.372922
0.532664
0.317597
0.109075
0.184183
0.338591
0.358175
0.339171
0.325415
0.174777
0.00283794
0.144809
0.497974
0.51047
0.0908446
-0.111437
0.246627
0.542864
0.250646
-0.113379
0.0847186
0.484177
0.471792
0.308888
0.44514
0.505982
0.104461
-0.215233
0.079452
0.513576
0.503869
0.364373
0.501093
0.51809
0.0818259
-0.237485
0.0635256
0.496282
0.483054
0.299346
0.372985
0.514187
0.413375
0.429144
0.520162
0.512755
0.443818
0.463548
0.528709
0.538229
0.519892
0.523065
0.524489
0.514053
0.517465
0.530609
0.526527
0.513939
0.521592
0.537521
0.530693
0.507966
0.513672
0.548255
0.552838
0.505795
0.480419
0.537532
0.583783
0.519794
0.437157
0.492638
0.596456
0.535919
0.38965
0.428561
0.618165
0.581265
0.220649
0.0155586
0.295375
0.615926
0.541043
0.399917
0.531281
0.539939
0.10773
-0.199683
0.126522
0.565519
0.5179
0.342469
0.479816
0.518922
0.0988223
-0.212172
0.0978225
0.52142
0.485811
0.339488
0.482589
0.500909
0.0813
-0.205696
0.0831119
0.47334
0.502813
0.267169
0.548605
0.36983
-0.0170694
0.0456199
0.470639
0.584481
0.225229
-0.033306
0.206613
0.571069
0.49754
0.0995419
-0.00672845
0.343197
0.600807
0.359661
-0.00305423
0.0770197
0.469143
0.558012
0.209231
-0.0391137
0.182028
0.528405
0.482618
0.126919
-0.0241307
0.22535
0.503235
0.444801
0.191304
0.107389
0.257271
0.339754
0.176111
0.0645091
0.28112
0.503816
0.42652
0.371699
0.552705
0.504624
-0.0160669
-0.351109
0.0139174
0.525839
0.56369
0.451151
0.576973
0.520421
-0.0122716
-0.367547
-0.011301
0.507789
0.565974
0.471718
0.588518
0.504725
-0.00324072
-0.266294
0.0891955
0.396193
0.227722
-0.052091
0.401156
0.208992
-0.309098
-0.249516
0.308809
0.457852
-0.0488604
-0.417106
-0.0707612
0.455689
0.345831
-0.230078
-0.373735
0.139306
0.502567
0.144202
-0.368506
-0.230344
0.333004
0.433333
-0.0751396
-0.391212
-0.0411748
0.41692
0.294841
-0.190132
-0.322088
0.0500356
0.37772
0.240122
-0.136624
-0.279909
-0.0511527
0.241145
0.291838
0.260834
0.381794
0.377095
0.0439623
-0.129078
0.193947
0.495621
0.33193
0.143952
0.34919
0.489821
0.171882
-0.0719038
0.21765
0.525351
0.356158
0.15649
0.360944
0.504517
0.191149
-0.0483818
0.224067
0.494913
0.337887
0.228637
0.451765
0.410002
-0.0959996
0.11577
0.512124
0.391543
0.00931603
0.0603867
0.472829
0.576486
0.206415
-0.0560825
0.196004
0.572677
0.492779
0.0830128
-0.0146039
0.354808
0.611707
0.35296
-0.00759682
0.100888
0.501672
0.562429
0.202486
0.00017033
0.258873
0.559918
0.45275
0.133709
0.0793414
0.338892
0.534355
0.399933
0.0899582
-0.0381496
0.180118
0.486025
0.531423
0.44431
0.493422
0.411955
-0.0394568
-0.326425
0.0206223
0.521055
0.59731
0.511776
0.608805
0.502382
-0.0566289
-0.405657
-0.0251688
0.525734
0.61151
0.519961
0.618256
0.512481
-0.0439072
-0.389139
-0.0262049
0.48877
0.570187
0.51952
0.633852
0.50923
0.0368689
0.461949
0.566503
0.539773
0.463046
0.48545
0.541095
0.535426
0.50623
0.509172
0.524146
0.522274
0.51479
0.516683
0.523013
0.524329
0.519766
0.516282
0.522569
0.530541
0.522631
0.50753
0.517586
0.546128
0.538786
0.496095
0.495218
0.552823
0.566181
0.506802
0.49355
0.545377
0.519318
0.430287
0.477048
0.565766
0.41223
0.205666
0.31928
0.49094
0.303786
0.0916086
0.284982
0.508134
0.330965
0.144175
0.352578
0.517754
0.23042
-0.0171364
0.237649
0.518446
0.341497
0.135238
0.339303
0.513943
0.241514
-0.00393349
0.232106
0.511081
0.365423
0.152166
0.289552
0.495223
0.451983
0.331823
0.163002
0.27407
0.506979
0.471494
0.139406
0.00790095
0.322644
0.604203
0.387049
0.000199416
0.0598337
0.475326
0.587313
0.217406
-0.0503854
0.204475
0.57879
0.481428
0.0624116
-0.022608
0.359921
0.606463
0.321257
-0.0496499
0.0826619
0.505649
0.535485
0.13578
-0.0327093
0.278719
0.550468
0.459538
0.312174
0.236426
0.00792572
-0.186489
0.0586329
0.489126
0.587407
0.51104
0.582505
0.480215
-0.0371795
-0.369649
-0.0138279
0.51371
0.589215
0.487112
0.590022
0.51697
-0.0170962
-0.383899
-0.0392433
0.50728
0.603949
0.487474
0.564925
0.542891
0.108226
-0.301974
-0.159069
0.331715
0.615703
-0.068375
-0.249913
0.0263063
0.425209
0.347844
-0.172557
-0.369142
0.0932343
0.502719
0.19602
-0.351959
-0.267482
0.319791
0.477695
-0.0446265
-0.419964
-0.0563786
0.470298
0.329072
-0.255878
-0.36219
0.17517
0.503458
0.101084
-0.390046
-0.187539
0.374632
0.385349
-0.155599
-0.359169
0.0697823
0.427267
0.288168
0.0740916
0.0497448
-0.0168001
-0.0689357
0.165121
0.439641
0.3875
0.287115
0.456312
0.498224
0.0977857
-0.194005
0.107391
0.511512
0.462125
0.306285
0.462438
0.521019
0.114302
-0.207004
0.083734
0.513324
0.482681
0.28898
0.401509
0.529548
0.252567
-0.128058
-0.0849594
0.301272
0.513007
-0.0734553
-0.0647344
0.247173
0.560153
0.498791
0.122842
-0.022977
0.304982
0.60372
0.392899
0.00424997
0.0615192
0.476619
0.589439
0.22237
-0.0402799
0.216813
0.586269
0.486406
0.0790647
0.0103043
0.388442
0.613449
0.328482
-0.00767944
0.144724
0.533051
0.523794
0.148585
0.0349931
0.332503
0.511052
0.347465
0.238395
0.34238
0.404489
0.423734
0.518024
0.414348
-0.0287018
-0.266524
0.0953424
0.536165
0.519971
0.387231
0.522764
0.518191
0.0524725
-0.279678
0.0456144
0.518524
0.527358
0.381683
0.508972
0.531544
0.0862039
-0.287354
-0.0224348
0.479715
0.575963
0.382407
0.354631
0.486712
0.466593
0.282982
0.417713
0.506445
0.492459
0.494049
0.520844
0.52059
0.510586
0.516954
0.524742
0.522736
0.519616
0.518935
0.518268
0.520457
0.52468
0.522639
0.515956
0.516485
0.524773
0.527866
0.522065
0.517082
0.517804
0.523766
0.530804
0.52362
0.498865
0.502234
0.554787
0.555541
0.429786
0.345861
0.474931
0.608773
0.530323
0.466574
0.567164
0.453569
-0.0376876
-0.30659
0.0651793
0.536649
0.550076
0.434426
0.562621
0.522269
0.012518
-0.340433
0.000881609
0.514187
0.564491
0.440191
0.553146
0.530205
0.0470807
-0.31865
-0.0260724
0.463191
0.533332
0.395107
0.462937
0.577143
0.471427
0.450294
0.584575
0.351346
-0.0336841
0.0237788
0.455116
0.599491
0.247635
-0.0423426
0.182015
0.567897
0.507492
0.0922432
-0.0237903
0.344842
0.614623
0.354835
-0.0244135
0.0783865
0.498674
0.567775
0.177633
-0.0520411
0.23708
0.582253
0.442278
0.0414325
-0.00280357
0.365873
0.57873
0.311229
-0.0417259
0.0464055
0.436737
0.498256
0.111789
-0.0962431
0.212217
0.516328
0.385591
0.230112
0.422404
0.514301
0.147105
-0.130586
0.160848
0.519165
0.40887
0.22302
0.402423
0.518252
0.168792
-0.122033
0.14816
0.506692
0.41943
0.25196
0.413253
0.487844
0.139684
-0.102516
0.163786
0.454141
0.36032
0.301412
0.510364
0.190806
-0.340872
-0.277974
0.297042
0.488408
-0.0036094
-0.410563
-0.0955356
0.449555
0.367093
-0.21643
-0.379457
0.138649
0.516672
0.152314
-0.376317
-0.228675
0.359799
0.453541
-0.0939382
-0.412785
-0.00305487
0.483289
0.287069
-0.272005
-0.327122
0.183702
0.462831
0.109155
-0.289749
-0.0942091
0.396082
0.394553
-0.149171
-0.432266
-0.0135814
0.528581
0.599255
0.495434
0.593575
0.508356
-0.0395958
-0.406642
-0.0447901
0.514377
0.612147
0.513399
0.609537
0.522994
-0.0287229
-0.402824
-0.0524998
0.496002
0.601454
0.525866
0.61953
0.501048
-0.0234866
-0.286984
0.0694294
0.38077
0.210795
0.146587
0.505241
0.404204
0.0513645
0.0808302
0.464921
0.583957
0.238791
-0.0361549
0.188598
0.566816
0.507739
0.101528
-0.011076
0.351462
0.615608
0.360561
-0.00800066
0.0976288
0.509728
0.573632
0.19095
-0.0289999
0.258763
0.597766
0.463572
0.0797509
0.0419208
0.393002
0.592125
0.360192
0.0806555
0.186372
0.508521
0.534259
0.181606
-0.0234997
0.24206
0.502123
0.30162
0.0685466
0.279318
0.510091
0.286286
0.0459041
0.269578
0.515472
0.3017
0.0681997
0.288487
0.516663
0.28464
0.0472498
0.273809
0.510516
0.294314
0.0720649
0.283831
0.485833
0.288684
0.154529
0.391921
0.479919
0.174374
0.156223
0.434473
0.553319
0.537167
0.532594
0.533008
0.506976
0.498917
0.522373
0.530776
0.514991
0.509596
0.521132
0.526303
0.519167
0.51456
0.519161
0.52494
0.523397
0.515927
0.512605
0.520326
0.529237
0.522455
0.506935
0.5107
0.533273
0.53611
0.516851
0.524242
0.55013
0.514719
0.428448
0.427467
0.517981
0.532054
0.504511
0.576946
0.479222
-0.0175154
-0.368765
-0.0403794
0.503105
0.610675
0.512527
0.602334
0.521168
-0.0236791
-0.401955
-0.0516467
0.508006
0.609865
0.510545
0.606415
0.526625
-0.0153912
-0.392334
-0.0609301
0.479508
0.602933
0.529821
0.597851
0.552618
0.266385
0.241639
0.157387
0.269551
0.504238
0.491948
0.152392
-0.0157073
0.291683
0.602464
0.400537
-0.00145968
0.0464889
0.470243
0.589575
0.214605
-0.0545513
0.20998
0.585866
0.4752
0.0518568
-0.0159627
0.378192
0.611133
0.312322
-0.051306
0.090199
0.511289
0.547962
0.155267
-0.0332844
0.256249
0.516197
0.33964
0.0727858
0.124467
0.304173
0.379971
0.466539
0.458713
0.138345
-0.112111
0.142873
0.496584
0.424789
0.257543
0.422814
0.520416
0.155328
-0.148015
0.13052
0.514353
0.433437
0.248065
0.412996
0.52358
0.171608
-0.136785
0.120569
0.51173
0.465104
0.238731
0.288035
0.457152
0.434955
0.28637
-0.0103448
0.0264078
0.328705
0.333719
-0.117037
-0.344409
0.0756453
0.49611
0.211335
-0.343633
-0.272463
0.31741
0.479678
-0.0465232
-0.420792
-0.0476754
0.478358
0.322796
-0.266213
-0.356296
0.193427
0.51361
0.0992314
-0.395798
-0.193286
0.382971
0.422966
-0.127804
-0.399946
0.0036822
0.431544
0.302973
-0.0471076
-0.14145
-0.107696
-0.0941564
0.116536
0.445037
0.516169
0.452194
0.550583
0.499489
0.0219376
-0.314568
0.0131879
0.511238
0.552841
0.424583
0.544847
0.529991
0.0401831
-0.326546
-0.00513078
0.509495
0.564666
0.424084
0.525461
0.546041
0.124555
-0.28683
-0.135134
0.34505
0.587644
0.21682
0.177671
0.273817
0.468325
0.47738
0.184827
0.0236217
0.304605
0.598061
0.402353
0.0128066
0.0624199
0.477534
0.59007
0.218896
-0.0421638
0.221516
0.589305
0.480424
0.0726228
0.0130136
0.394203
0.614139
0.329112
-0.00706612
0.137123
0.531795
0.550721
0.165942
-0.0174569
0.26449
0.560117
0.491667
0.271788
0.142247
0.00595834
-0.0900298
0.114459
0.454992
0.519121
0.446889
0.548669
0.507767
0.038061
-0.297424
0.0237001
0.509566
0.538626
0.404226
0.529937
0.530195
0.0557876
-0.304089
0.0115198
0.507899
0.542125
0.394289
0.50333
0.532321
0.125768
-0.243975
-0.0549832
0.384714
0.540582
0.0360123
0.428068
0.582032
0.510198
0.493546
0.538325
0.534894
0.508461
0.51543
0.531415
0.526411
0.517274
0.518626
0.521444
0.52176
0.522839
0.520489
0.514371
0.516108
0.526827
0.528103
0.514371
0.507385
0.519853
0.532192
0.524898
0.506943
0.496852
0.507889
0.534338
0.524734
0.447204
0.403539
0.491627
0.560465
0.446276
0.34346
0.455231
0.483461
0.143749
-0.126836
0.135579
0.508778
0.448622
0.281612
0.439642
0.524463
0.142149
-0.175419
0.105736
0.51122
0.454419
0.279983
0.437433
0.521136
0.1381
-0.174959
0.101152
0.49742
0.457485
0.296825
0.412276
0.473541
0.214096
-0.0136037
0.479779
0.461036
0.0617079
0.0387124
0.435853
0.582047
0.239076
-0.0368185
0.196266
0.572532
0.49877
0.086975
-0.01599
0.354988
0.614258
0.346729
-0.0278865
0.0845637
0.505811
0.563424
0.162327
-0.0628459
0.240735
0.586593
0.426894
0.0116417
-0.0232252
0.363812
0.584284
0.302356
-0.103522
-0.0888349
0.319316
0.585757
0.483942
0.402975
0.559149
0.50944
-0.0102034
-0.385479
-0.0534845
0.502787
0.609705
0.502707
0.596461
0.533614
-0.00203548
-0.392641
-0.0571584
0.500916
0.604595
0.503787
0.601921
0.525514
-0.0145526
-0.376057
-0.0269262
0.489135
0.561012
0.490109
0.602201
0.476617
-0.0519734
0.268412
0.532648
0.251993
-0.313754
-0.291758
0.279129
0.47377
-0.0190633
-0.412384
-0.0815317
0.454684
0.352381
-0.229424
-0.373906
0.149504
0.513995
0.140084
-0.380864
-0.222324
0.362909
0.4435
-0.107288
-0.41425
0.00270028
0.476096
0.262798
-0.293027
-0.335134
0.17695
0.455743
0.0973992
-0.359498
-0.260488
0.241645
0.429172
0.108946
-0.0840382
0.226972
0.511025
0.302818
0.0563928
0.269324
0.513644
0.282718
0.0135235
0.23174
0.513032
0.332146
0.0950461
0.297752
0.51709
0.271981
0.0166749
0.246671
0.50966
0.317337
0.11135
0.32957
0.497836
0.220705
0.0262529
0.296663
0.458795
0.131002
0.508694
0.628696
0.37772
-0.0284921
0.0288901
0.465273
0.591396
0.22165
-0.054818
0.190024
0.570808
0.496766
0.0885941
-0.0110435
0.356061
0.611789
0.352193
-0.0102809
0.09977
0.506476
0.564567
0.187934
-0.0212562
0.261801
0.582607
0.447006
0.0872613
0.0573473
0.377218
0.556632
0.3543
0.101201
0.196384
0.510939
0.484249
-0.0324827
-0.371067
-0.0295214
0.500471
0.594687
0.490701
0.590688
0.538858
0.0011265
-0.411556
-0.0869702
0.490655
0.616275
0.513644
0.6063
0.537029
-0.0127953
-0.41083
-0.0691067
0.497216
0.610269
0.523424
0.616236
0.505095
-0.0475959
-0.372162
0.00165582
0.487112
0.505447
0.225598
0.424239
0.524947
0.482256
0.481216
0.53047
0.529829
0.50028
0.503933
0.521995
0.521105
0.51539
0.520484
0.523666
0.518316
0.516677
0.523149
0.527024
0.521153
0.512863
0.514148
0.527018
0.533406
0.514912
0.493191
0.512157
0.553448
0.53807
0.474786
0.477809
0.552808
0.560054
0.509279
0.552129
0.545745
0.249949
-0.0127302
0.188183
0.509305
0.429952
0.239086
0.392449
0.530454
0.209538
-0.102541
0.144109
0.513693
0.416397
0.204126
0.374529
0.527398
0.201843
-0.106376
0.150282
0.514812
0.414021
0.213647
0.379096
0.508603
0.197472
-0.0762257
0.157263
0.512135
0.519518
-0.231134
-0.0103002
0.354711
0.571361
0.445364
0.10272
-0.0011272
0.319392
0.595623
0.380627
0.000165477
0.0641432
0.477708
0.580305
0.20699
-0.0473023
0.220203
0.583069
0.465166
0.0519375
-0.00690937
0.378525
0.594783
0.291272
-0.0585963
0.0959272
0.499185
0.488179
0.0815362
-0.0553811
0.250747
0.407733
0.161592
0.0458713
0.307065
0.492698
0.46137
0.524268
0.510791
0.0836618
-0.296784
-0.0344326
0.480084
0.57029
0.44357
0.55181
0.553359
0.0633412
-0.344403
-0.0443852
0.49603
0.576562
0.444991
0.554403
0.543124
0.048499
-0.342135
-0.0351267
0.500857
0.59488
0.445505
0.471684
0.492122
0.244536
-0.138312
-0.0787667
0.214353
0.445426
0.266856
-0.206265
-0.337546
0.118856
0.494404
0.180435
-0.35165
-0.2572
0.320148
0.461451
-0.0589087
-0.414659
-0.0459914
0.4606
0.305748
-0.264065
-0.354701
0.1689
0.475005
0.0755989
-0.399653
-0.208247
0.318387
0.311174
-0.2047
-0.373822
0.00373053
0.170477
-0.170874
-0.311444
0.0959241
0.441685
0.427858
0.454252
0.472927
0.0994772
-0.276807
-0.036724
0.462727
0.528238
0.364797
0.472784
0.534531
0.114884
-0.271584
-0.00141181
0.490574
0.527567
0.373449
0.497978
0.535588
0.0895209
-0.285937
-7.07306e-05
0.49386
0.541883
0.367623
0.408756
0.465247
0.227432
0.325028
0.303252
0.398751
0.49594
0.401579
0.127577
0.0462513
0.343603
0.595751
0.379851
0.0086953
0.071766
0.475521
0.578225
0.216948
-0.0362147
0.213002
0.569244
0.476434
0.083707
0.00317683
0.356799
0.588978
0.331308
-0.0101668
0.103802
0.472363
0.472409
0.109722
0.0128877
0.303588
0.394261
0.109461
0.0276165
0.309674
0.347398
0.0544755
0.0894938
0.441318
0.471488
0.278714
0.382385
0.521146
0.193071
-0.187441
0.0246489
0.475055
0.491798
0.312023
0.436752
0.528867
0.149524
-0.199094
0.0649286
0.496766
0.470467
0.293252
0.430566
0.50783
0.134808
-0.179472
0.0699708
0.478392
0.510499
0.346016
0.516916
0.528444
0.431455
0.451107
0.543965
0.553794
0.507462
0.505625
0.532536
0.531123
0.512837
0.51451
0.5316
0.53721
0.52258
0.506398
0.516944
0.544709
0.542763
0.504878
0.497168
0.542281
0.554361
0.499749
0.483719
0.542294
0.529106
0.418123
0.423944
0.560635
0.54569
0.374028
0.406532
0.580582
0.363556
-0.118977
-0.0857122
0.42738
0.643294
0.521695
0.55251
0.555263
0.115285
-0.318699
-0.0841686
0.466924
0.611782
0.501457
0.584848
0.5524
0.0446928
-0.364831
-0.0637867
0.484613
0.59581
0.499443
0.596665
0.52043
-0.00454984
-0.336007
0.0140148
0.485783
0.517066
-0.0587118
0.367095
0.338938
0.00866703
0.0614736
0.464633
0.555206
0.184997
-0.0506313
0.217051
0.569473
0.465738
0.0765034
0.00971394
0.366442
0.585236
0.323628
0.00206307
0.126816
0.485771
0.504274
0.175338
0.0303266
0.251566
0.446901
0.344971
0.156413
0.105612
0.146021
0.204487
0.237865
0.152804
0.0266461
0.136822
0.404447
0.360378
0.0505862
0.074223
0.378724
0.346847
0.0921551
0.18669
0.462954
0.383621
0.161415
0.302376
0.511678
0.286037
0.00122467
0.201197
0.506139
0.361908
0.126021
0.307549
0.516546
0.272607
0.0180857
0.242443
0.494069
0.306379
0.133222
0.354952
0.44789
0.0962346
-0.0799084
0.360818
0.227266
-0.259811
-0.224616
0.293982
0.418428
-0.0764718
-0.40442
-0.0476656
0.43897
0.304676
-0.235863
-0.34619
0.13503
0.454436
0.120028
-0.333392
-0.204696
0.277572
0.349047
-0.0691454
-0.302699
-0.051392
0.221154
0.125127
-0.108676
-0.171692
-0.123052
-0.080166
-0.0532947
-0.116534
-0.260105
-0.209546
0.119015
0.357115
0.338629
0.351339
0.360713
0.0411942
-0.308457
-0.124058
0.372171
0.556235
0.493335
0.576515
0.532785
0.0161916
-0.411135
-0.118655
0.456603
0.598028
0.495251
0.589202
0.542594
0.0103755
-0.399091
-0.08612
0.458959
0.574595
0.505846
0.592259
0.439419
-0.110377
0.372387
0.616979
0.440665
0.0369596
0.0647824
0.464149
0.566039
0.211727
-0.0254937
0.219274
0.559535
0.476553
0.103453
0.00817999
0.328072
0.572243
0.368992
0.0363237
0.0825852
0.419235
0.514677
0.241073
0.050935
0.202408
0.3962
0.341521
0.196108
0.175461
0.202947
0.205074
0.236982
0.241659
0.13474
0.0882934
0.252199
0.432776
0.477819
0.509979
0.467596
0.173873
-0.0638918
0.141021
0.472775
0.413326
0.209123
0.352975
0.520113
0.224575
-0.0968559
0.132175
0.509905
0.421814
0.18739
0.344633
0.525755
0.224171
-0.103864
0.121489
0.49552
0.433034
0.23378
0.352575
0.468482
0.243473
0.462823
0.548975
0.545561
0.437349
0.433333
0.528744
0.565054
0.523136
0.494669
0.505426
0.529816
0.546848
0.533513
0.496747
0.49874
0.56063
0.580749
0.503528
0.455834
0.542024
0.618953
0.531473
0.430614
0.503009
0.617298
0.557256
0.431499
0.460534
0.567192
0.571223
0.499211
0.47973
0.522825
0.565502
0.523059
0.363642
0.273299
0.416859
0.551223
0.418216
0.310121
0.514888
0.624562
0.2072
-0.240587
-0.02399
0.491228
0.575137
0.424383
0.534543
0.590476
0.146479
-0.294261
-0.0536711
0.480303
0.579938
0.437486
0.53325
0.574448
0.163655
-0.244818
-0.0563988
0.43423
0.609999
-0.0339369
0.0248114
0.286119
0.449624
0.351789
0.119113
0.0848394
0.333578
0.500954
0.30386
0.0425449
0.139038
0.437936
0.46124
0.200601
0.0990615
0.277364
0.400905
0.316258
0.252528
0.292991
0.25516
0.179352
0.28146
0.442444
0.332117
0.0729891
0.104078
0.396514
0.476182
0.203848
0.0165415
0.230122
0.552125
0.479025
0.0420169
-0.150922
0.170658
0.467014
0.296218
0.0958274
0.334281
0.564665
0.211829
-0.262104
-0.0851381
0.428665
0.511843
0.321159
0.403387
0.518389
0.182586
-0.217525
-0.0297112
0.443339
0.529185
0.39015
0.479243
0.537311
0.177253
-0.216433
-0.0744142
0.378869
0.515429
-0.253496
-0.184908
0.163117
0.391155
0.218271
-0.165129
-0.237605
0.116813
0.362994
0.100913
-0.266407
-0.16184
0.229837
0.28269
-0.0481308
-0.207325
-0.00802583
0.161089
0.0956794
0.0356669
0.0605433
-0.0341919
-0.150032
0.0150857
0.276938
0.142671
-0.25033
-0.256586
0.170978
0.339965
-0.0555452
-0.402233
-0.137449
0.372153
0.37311
-0.114249
-0.297205
0.121942
0.430311
0.0965982
-0.295131
-0.0510204
0.437807
0.426341
0.127453
0.188765
0.402227
0.196793
-0.15564
-0.035218
0.370952
0.455186
0.297546
0.359238
0.459511
0.19373
-0.10949
0.0438565
0.385631
0.412048
0.249518
0.29365
0.434695
0.289944
0.191896
0.210428
0.404407
0.557892
0.448497
0.155637
0.0721187
0.331417
0.543689
0.365476
0.0686261
0.12116
0.416839
0.473228
0.226378
0.101158
0.250099
0.371485
0.316549
0.285742
0.329524
0.249087
0.1226
0.237056
0.4722
0.398042
0.0782171
0.0383584
0.372142
0.539309
0.248818
-0.0492813
0.111797
0.49013
0.514855
0.18486
0.0721246
0.382862
0.582282
0.275932
-0.0812524
0.0761867
0.490197
0.58887
0.459883
0.486796
0.497252
0.17996
-0.146519
-0.00739228
0.406778
0.580156
0.528527
0.565431
0.522894
0.133823
-0.217544
-0.057477
0.369742
0.557731
0.501886
0.489923
0.505698
0.349888
0.533952
0.402488
0.381175
0.520768
0.606329
0.484888
0.35903
0.458029
0.638777
0.597505
0.393642
0.376802
0.57824
0.657363
0.481077
0.365358
0.502787
0.641556
0.556342
0.427589
0.480641
0.585429
0.558784
0.480065
0.496895
0.554016
0.545443
0.503673
0.507774
0.543223
0.54989
0.526364
0.50485
0.505204
0.513566
0.507779
0.499182
0.510131
0.511017
0.46981
0.450353
0.487609
0.468902
0.373625
0.39561
0.549447
0.546027
0.333781
0.252766
0.437349
0.553403
0.357565
0.166774
0.323296
0.532975
0.397594
0.173491
0.277303
0.528108
0.508739
0.273724
0.197556
0.349768
0.483176
0.347345
0.0423716
-0.0802073
0.144573
0.389837
0.319486
0.100059
0.114122
0.335147
0.369632
0.150104
0.079235
0.312432
0.453648
0.231094
0.0252852
0.217469
0.502401
0.385227
0.0407326
0.0453099
0.407202
0.558824
0.261205
-0.0141274
0.166256
0.528161
0.513339
0.141424
-0.00899807
0.303587
0.601246
0.417525
0.0405622
0.0618765
0.430261
0.542795
0.217512
-0.0296388
0.193649
0.571087
0.550008
0.128033
-0.128343
0.108128
0.430692
0.356809
0.125795
0.247922
0.584045
0.535256
0.0157332
-0.31732
-0.0199739
0.459657
0.523595
0.336367
0.379741
0.549032
0.388926
-0.0474062
-0.225303
0.052076
0.402328
0.213586
-0.0938713
-0.181112
0.065399
0.289226
0.169478
-0.089724
-0.0728021
0.173063
0.191799
-0.0842529
-0.172156
0.122332
0.302524
0.00784838
-0.291467
-0.0620063
0.348196
0.239667
-0.244503
-0.313216
0.169943
0.441565
0.0537806
-0.384851
-0.171013
0.372546
0.389422
-0.158118
-0.413608
0.0282813
0.475841
0.223323
-0.318066
-0.273413
0.291271
0.478964
-0.00397048
-0.398665
-0.0955799
0.446048
0.42203
-0.10587
-0.32282
0.0799169
0.435863
0.189632
-0.207297
-0.0650842
0.413266
0.470889
-0.00205769
-0.296325
0.0176913
0.456535
0.416766
0.103482
0.118187
0.416061
0.411473
0.0135235
-0.213945
0.0318155
0.351181
0.391462
0.334259
0.315329
0.394272
0.472008
0.408338
0.272389
0.279972
0.42338
0.426657
0.234147
0.165007
0.370809
0.506396
0.290287
0.0489445
0.199463
0.5182
0.466717
0.104662
0.0172698
0.358116
0.580283
0.31184
-0.0263044
0.109138
0.511572
0.539864
0.140967
-0.0570642
0.260728
0.589561
0.402012
0.000202367
0.0336667
0.456353
0.605954
0.258984
-0.0382425
0.159902
0.529183
0.505538
0.159938
0.0696978
0.393219
0.609567
0.348168
-0.0154306
0.0521707
0.425656
0.558837
0.343982
0.207513
0.377753
0.549462
0.390372
0.0916478
0.114263
0.438571
0.579502
0.389009
0.235467
0.355376
0.511366
0.351669
0.633884
0.611356
0.38274
0.335279
0.51879
0.620122
0.51219
0.42052
0.493928
0.585827
0.549991
0.476601
0.49438
0.549894
0.544359
0.502427
0.503965
0.537501
0.542698
0.517153
0.508651
0.528687
0.537161
0.521298
0.510709
0.523811
0.535754
0.525329
0.512483
0.522069
0.53751
0.52702
0.505277
0.505687
0.519521
0.520681
0.516914
0.521653
0.519016
0.500755
0.490405
0.505267
0.524989
0.520055
0.495011
0.475431
0.46926
0.465032
0.456254
0.469412
0.533727
0.583258
0.5237
0.41854
0.385529
0.411909
0.447671
0.476232
0.495798
0.536626
0.573566
0.53981
0.478666
0.0153871
0.496368
0.404714
-0.0905106
-0.18909
0.257461
0.537866
0.239552
-0.108247
0.0746491
0.49013
0.473162
0.072917
-0.0443422
0.316098
0.582587
0.337576
-0.0177988
0.0881407
0.49057
0.554346
0.183079
-0.0276892
0.259686
0.593621
0.446715
0.0519922
0.0340604
0.421988
0.604928
0.296828
-0.0127476
0.165713
0.552107
0.534592
0.129659
-0.0354053
0.299367
0.61254
0.415317
0.0247756
0.0598425
0.453578
0.561076
0.193528
-0.0744069
0.186518
0.586971
0.526765
0.11129
-0.0202677
0.313498
0.542565
0.267691
-0.0576924
0.121166
0.541205
0.571074
0.191342
-0.00766752
0.263326
0.534042
0.344398
0.0203638
0.00289736
0.44244
0.313263
-0.21502
-0.308337
0.182778
0.465972
0.0706747
-0.376463
-0.156026
0.37731
0.356281
-0.192792
-0.383615
0.0974025
0.482686
0.150236
-0.37006
-0.243907
0.332229
0.440333
-0.0932101
-0.416703
-0.0120614
0.481063
0.27933
-0.297655
-0.334679
0.227462
0.498169
0.0484055
-0.40902
-0.148598
0.424018
0.410764
-0.167447
-0.403542
0.0710975
0.506312
0.217538
-0.327691
-0.254763
0.32104
0.479345
-0.03757
-0.41792
-0.0620421
0.484578
0.385906
-0.189273
-0.336863
0.157288
0.477931
0.104131
-0.336306
-0.0995751
0.46394
0.476645
-0.084558
-0.351561
0.0719868
0.474908
0.192065
-0.31087
0.386153
0.579609
0.514163
0.252477
0.205314
0.461515
0.601219
0.352282
0.0727085
0.207608
0.548246
0.530393
0.153816
0.0105127
0.334279
0.604233
0.371893
-0.0026576
0.0789135
0.489864
0.570133
0.183818
-0.0569585
0.232001
0.592066
0.448664
0.0280742
-0.00224429
0.406211
0.604901
0.277535
-0.05855
0.12711
0.543097
0.538828
0.127708
-0.0389129
0.300716
0.605722
0.389477
-0.00397781
0.0540987
0.475242
0.599126
0.241518
-0.0297193
0.203992
0.565671
0.479096
0.0782509
0.00519981
0.385805
0.620255
0.347162
0.0150752
0.151638
0.52863
0.529189
0.130995
-0.0351685
0.30931
0.619232
0.392467
-0.0185961
0.508746
0.351108
0.408788
0.579313
0.598765
0.468649
0.414244
0.501261
0.572876
0.536463
0.481356
0.4951
0.537094
0.538672
0.514007
0.51026
0.523612
0.526047
0.519094
0.521529
0.527779
0.522059
0.51269
0.517696
0.530404
0.528368
0.514093
0.511518
0.525661
0.533307
0.522132
0.510426
0.514361
0.524155
0.52423
0.517435
0.516499
0.523442
0.526052
0.516831
0.507695
0.510029
0.51488
0.515863
0.5223
0.529025
0.519798
0.503176
0.497004
0.501765
0.511401
0.517311
0.515747
0.516775
0.517265
0.505657
0.495617
0.495319
0.491167
0.493964
0.520805
0.543633
0.522086
0.474674
0.246258
-0.210616
-0.0698029
0.440318
0.502585
0.0396542
-0.178684
0.205169
0.581777
0.373281
-0.055724
-0.007406
0.439589
0.57991
0.210228
-0.0638605
0.196633
0.577764
0.480445
0.0690856
0.00154484
0.385133
0.613443
0.328759
-0.0145258
0.127545
0.530326
0.557561
0.166753
-0.0246005
0.286477
0.610667
0.435603
0.034637
0.0385012
0.440006
0.603668
0.270872
-0.0303831
0.1781
0.567798
0.520203
0.102718
-0.0309661
0.330288
0.614365
0.371926
-0.00440391
0.0898944
0.503596
0.574133
0.181661
-0.05719
0.235259
0.592805
0.452122
0.0580586
0.0567406
0.450285
0.606355
0.278588
-0.00322785
0.210137
0.569303
0.196599
-0.320125
-0.183062
0.373812
0.429808
-0.123799
-0.398026
0.0506094
0.498823
0.218981
-0.345647
-0.292219
0.293456
0.474263
-0.0388204
-0.424814
-0.0670386
0.465273
0.324797
-0.263912
-0.363955
0.1845
0.512567
0.101215
-0.396656
-0.192413
0.391217
0.431557
-0.135208
-0.414248
0.0351106
0.505301
0.255929
-0.318457
-0.310706
0.266361
0.499387
0.0193324
-0.413798
-0.112949
0.449895
0.387763
-0.20229
-0.390526
0.117536
0.513172
0.169356
-0.358504
-0.220866
0.365605
0.462784
-0.0908931
-0.418679
0.0014589
0.505082
0.298579
-0.274507
-0.286124
0.28153
0.505537
0.0126075
-0.410944
-0.0844047
0.463828
0.457613
0.194886
0.262873
0.558692
0.584525
0.260619
0.0893809
0.348659
0.616047
0.432571
0.0636971
0.093402
0.47714
0.591987
0.234982
-0.0354729
0.211766
0.582881
0.479991
0.0592555
-0.0131843
0.378414
0.612128
0.314839
-0.0441938
0.103045
0.523984
0.553244
0.144782
-0.0565939
0.266441
0.604491
0.425575
0.013922
0.0207295
0.435726
0.602981
0.257943
-0.054441
0.158748
0.561148
0.519256
0.101963
-0.0287967
0.3342
0.613515
0.364084
-0.0172158
0.0769234
0.495228
0.569307
0.183318
-0.0425092
0.255614
0.605326
0.444652
0.018508
0.00346539
0.423479
0.592938
0.219616
-0.106918
0.140628
0.560493
0.439885
0.592934
0.555486
0.431076
0.432588
0.541281
0.58068
0.511557
0.461919
0.499253
0.548927
0.541144
0.50823
0.504767
0.522724
0.528547
0.521769
0.519979
0.521929
0.518976
0.516809
0.522615
0.527455
0.521126
0.512678
0.51619
0.52659
0.527449
0.518042
0.513573
0.520204
0.526492
0.522273
0.514229
0.514992
0.523543
0.52684
0.520403
0.514273
0.515999
0.520542
0.520198
0.516357
0.516786
0.522787
0.525727
0.519216
0.509095
0.507654
0.516758
0.524571
0.52515
0.521501
0.515757
0.512285
0.505321
0.487134
0.485746
0.522453
0.54736
0.512286
0.46853
0.496121
0.560447
0.0802889
0.536885
0.385368
-0.0997385
-0.118178
0.36155
0.577967
0.210026
-0.126529
0.113648
0.546871
0.495159
0.0635852
-0.0475974
0.338482
0.611295
0.349164
-0.0208258
0.090712
0.50695
0.572152
0.187989
-0.0353666
0.255196
0.601361
0.457761
0.0517006
0.0240848
0.418904
0.613542
0.30018
-0.02759
0.147034
0.548185
0.542316
0.138561
-0.0253688
0.310097
0.615826
0.408557
0.0152022
0.0575707
0.468444
0.596802
0.239559
-0.0355015
0.2079
0.580978
0.491557
0.0879821
0.0202523
0.400402
0.617049
0.314258
-0.0262437
0.139927
0.542607
0.546531
0.170933
0.0368596
0.36334
0.627212
0.419065
0.100368
0.021811
0.502532
0.299548
-0.282643
-0.316871
0.246402
0.494965
0.0227495
-0.41338
-0.11416
0.438724
0.356028
-0.23246
-0.387478
0.138177
0.508646
0.135857
-0.386308
-0.228783
0.359643