# vtk DataFile Version 3.0
PFC-RG simulation results
ASCII
DATASET STRUCTURED_POINTS
DIMENSIONS 64 64 1
ORIGIN 0 0 0
SPACING 1 1 1
POINT_DATA 4096
SCALARS psi double
LOOKUP_TABLE default
0.501192
0.554923
0.538499
0.472565
0.484282
0.530027
0.525513
0.509601
0.530239
0.546096
0.521886
0.49391
0.512921
0.557946
0.557425
0.499172
0.471648
0.538629
0.591949
0.524046
0.441731
0.505414
0.608734
0.555553
0.448579
0.496612
0.614431
0.566595
0.424043
0.436532
0.577139
0.615255
0.530301
0.482404
0.496556
0.49008
0.448279
0.418276
0.435594
0.479733
0.524064
0.546259
0.405453
0.0676353
-0.0849301
0.207199
0.552147
0.567497
0.508251
0.617321
0.520966
-0.00561408
-0.352255
-0.00930384
0.520172
0.614104
0.51693
0.593002
0.517034
0.0442293
-0.297845
-0.0464748
0.429126
0.596773
0.076472
0.0750815
0.312116
0.547791
0.463156
0.110799
-0.0167006
0.299516
0.58177
0.372452
-0.00862992
0.0392528
0.441161
0.565557
0.222577
-0.0534425
0.156151
0.522731
0.484056
0.114233
-0.0177821
0.268859
0.509005
0.370402
0.146832
0.171305
0.310663
0.330475
0.328793
0.401112
0.357244
0.168644
0.159532
0.400467
0.490961
0.290593
0.203474
0.429328
0.570505
0.317935
0.0362689
0.174944
0.454649
0.380094
0.18417
0.30136
0.460417
0.293016
0.138567
0.345589
0.505233
0.231379
-0.0179461
0.21846
0.500784
0.339058
0.123146
0.305023
0.512665
0.310886
0.023116
0.106961
0.408713
0.509337
-0.240908
-0.271512
0.0800403
0.456418
0.342779
-0.172363
-0.352281
0.0999256
0.487497
0.181165
-0.345508
-0.257059
0.304698
0.447307
-0.0511449
-0.404284
-0.0705664
0.413894
0.294189
-0.221686
-0.328959
0.104895
0.380864
0.114611
-0.215138
-0.150611
0.0909025
0.159287
0.140607
0.152274
0.00825648
-0.245487
-0.178914
0.238268
0.424256
0.173232
0.0538834
0.358069
0.498176
0.0508138
-0.389547
-0.144037
0.418776
0.576539
0.458408
0.501697
0.439754
-0.0262646
-0.35409
-0.026223
0.489589
0.573557
0.4698
0.569295
0.515515
0.00378919
-0.372512
-0.0567392
0.49473
0.622756
0.453662
0.405756
0.458167
0.357301
0.0458738
0.0284934
0.265453
0.529483
0.481227
0.152786
0.0318872
0.339548
0.606614
0.391989
0.0259429
0.0943172
0.488595
0.578866
0.223493
-0.011011
0.239468
0.569826
0.457353
0.0920049
0.0545077
0.385915
0.548329
0.302733
0.0641256
0.163519
0.369237
0.383217
0.311435
0.292613
0.178906
-0.00944045
0.0685022
0.422179
0.523949
0.187226
-0.0018635
0.30738
0.536497
0.215646
-0.127786
0.0917966
0.481557
0.447847
0.277893
0.42904
0.52253
0.147872
-0.176079
0.0933304
0.506594
0.479352
0.322159
0.466688
0.527375
0.128934
-0.195833
0.0752257
0.488779
0.471711
0.283885
0.347613
0.497635
0.435591
0.416679
0.513304
0.513293
0.449487
0.469626
0.537911
0.548828
0.519082
0.510851
0.523116
0.531491
0.529935
0.52094
0.512527
0.518167
0.53568
0.539744
0.520685
0.502257
0.516411
0.550271
0.552455
0.506099
0.47331
0.52072
0.580002
0.536395
0.434544
0.4495
0.562207
0.545201
0.403064
0.409278
0.580751
0.515925
0.0919211
-0.133293
0.207278
0.595718
0.543134
0.402431
0.535447
0.53788
0.0873607
-0.237695
0.0893134
0.555773
0.543441
0.380841
0.506338
0.526345
0.0827621
-0.253265
0.0550734
0.512426
0.515647
0.379208
0.50366
0.495034
0.0608504
-0.219973
0.078258
0.467155
0.494934
0.255032
0.564939
0.398694
-0.00728709
0.0297955
0.455694
0.584039
0.21971
-0.0555067
0.187309
0.565968
0.487841
0.0735693
-0.029626
0.339556
0.601136
0.345258
-0.0225341
0.0722911
0.474615
0.554267
0.196193
-0.0446334
0.186279
0.531452
0.485731
0.130335
-0.039916
0.192143
0.49926
0.489162
0.252387
0.175359
0.334379
0.351242
0.0483893
-0.11621
0.192511
0.520826
0.460335
0.375077
0.548517
0.517416
0.00746352
-0.33521
0.0144538
0.51696
0.549986
0.431597
0.561548
0.527032
0.0141748
-0.344632
-0.00617943
0.499343
0.550911
0.455905
0.577305
0.496142
-0.00830473
-0.255863
0.11362
0.411999
0.221348
-0.0573004
0.419187
0.237658
-0.29541
-0.256106
0.303796
0.469214
-0.0338023
-0.413365
-0.0723516
0.457893
0.347937
-0.231497
-0.3719
0.146401
0.50451
0.136669
-0.373508
-0.222987
0.342503
0.430135
-0.0857512
-0.392955
-0.0339624
0.420967
0.295262
-0.191046
-0.332823
0.0389203
0.396096
0.273641
-0.130705
-0.266841
0.0343666
0.345536
0.315846
0.23876
0.407122
0.439744
0.0699801
-0.153512
0.168436
0.503697
0.366013
0.181086
0.37422
0.496288
0.15436
-0.111171
0.180937
0.522228
0.389949
0.201119
0.389805
0.505039
0.164615
-0.0832853
0.203658
0.491786
0.343646
0.244167
0.474773
0.425532
-0.0974706
0.106726
0.512879
0.397133
0.0149418
0.064843
0.478595
0.588777
0.226154
-0.0362079
0.208811
0.579683
0.502257
0.0998747
0.00458391
0.367285
0.615242
0.354672
-0.000438234
0.112125
0.508717
0.561336
0.19974
0.00213869
0.261009
0.557016
0.451262
0.13539
0.0747064
0.336937
0.55187
0.391489
-0.0114043
-0.17344
0.136439
0.526725
0.563867
0.465246
0.545466
0.465129
-0.0374238
-0.362031
-0.00471709
0.519201
0.599946
0.508468
0.608485
0.513155
-0.0433515
-0.403857
-0.033092
0.520119
0.610328
0.518397
0.617845
0.514641
-0.0436868
-0.389051
-0.0198561
0.495682
0.568976
0.515699
0.632924
0.504408
0.0235457
0.457726
0.565586
0.53305
0.457341
0.487327
0.541862
0.530456
0.505361
0.51613
0.527132
0.514997
0.50888
0.521829
0.530904
0.523636
0.513705
0.514814
0.52639
0.532796
0.520405
0.504742
0.518298
0.547867
0.535682
0.491293
0.499268
0.559051
0.556115
0.494909
0.510891
0.548487
0.431534
0.304938
0.428459
0.56616
0.366567
0.135903
0.298998
0.505932
0.302525
0.0777204
0.285946
0.515655
0.317672
0.109567
0.325253
0.520879
0.258931
0.0148512
0.257252
0.518771
0.319227
0.0997607
0.314347
0.514176
0.260029
0.0206971
0.253543
0.516493
0.350773
0.133926
0.280596
0.487051
0.436799
0.344152
0.183454
0.280309
0.502045
0.470672
0.138382
-0.00254544
0.310967
0.600424
0.383509
-0.0112647
0.0476649
0.470279
0.583822
0.20896
-0.0590891
0.201725
0.578762
0.478218
0.0568771
-0.0252961
0.361596
0.607531
0.317389
-0.0508647
0.0941586
0.513935
0.514988
0.112043
-0.00466413
0.332831
0.565633
0.492395
0.445101
0.372991
0.00810357
-0.278205
0.00602713
0.496337
0.598109
0.510438
0.592438
0.499101
-0.0324242
-0.384497
-0.0298462
0.511747
0.59777
0.496161
0.597023
0.520974
-0.0216566
-0.395925
-0.0471639
0.508866
0.60951
0.494623
0.572227
0.538905
0.0895709
-0.313964
-0.148979
0.347529
0.6203
-0.0655856
-0.223756
0.0464418
0.428504
0.350249
-0.165679
-0.366379
0.0919812
0.504249
0.199885
-0.350067
-0.266691
0.321174
0.477597
-0.0464094
-0.41993
-0.0536445
0.472287
0.328258
-0.258072
-0.363261
0.176372
0.503827
0.0963751
-0.393743
-0.180332
0.378046
0.360827
-0.181194
-0.33333
0.117801
0.438172
0.339055
0.2679
0.281339
0.0775209
-0.0946413
0.151198
0.470933
0.406653
0.27341
0.443453
0.507725
0.117363
-0.179578
0.115123
0.511872
0.449552
0.283664
0.445857
0.522639
0.130338
-0.186704
0.0997706
0.5156
0.469258
0.275036
0.398936
0.526707
0.240766
-0.127952
-0.0577017
0.330314
0.517493
-0.114864
-0.0686278
0.258631
0.563432
0.499847
0.13051
-0.0135536
0.310523
0.6072
0.398254
0.0118879
0.0689638
0.481322
0.591641
0.224844
-0.0364673
0.220138
0.588
0.487067
0.077981
0.00762635
0.387686
0.614086
0.322756
-0.019366
0.139777
0.532019
0.508244
0.131083
0.0440064
0.325682
0.419407
0.24317
0.261987
0.46044
0.473594
0.423172
0.530889
0.460429
-0.00463561
-0.286817
0.066907
0.530365
0.530796
0.398611
0.53047
0.52104
0.0453208
-0.29538
0.0332511
0.518227
0.537129
0.395998
0.520708
0.530147
0.0716467
-0.296169
-0.0141414
0.488581
0.572358
0.385293
0.376943
0.497087
0.433751
0.221649
0.388468
0.50115
0.489422
0.49035
0.521031
0.52239
0.509725
0.514487
0.52439
0.524665
0.520722
0.517968
0.517424
0.521268
0.525415
0.5221
0.516158
0.518054
0.5241
0.524592
0.522823
0.522886
0.5172
0.512789
0.52541
0.530017
0.497862
0.490342
0.555758
0.549023
0.34754
0.206898
0.3887
0.599515
0.524129
0.438243
0.561116
0.482567
-0.0141304
-0.311166
0.0516813
0.531969
0.548118
0.426913
0.555398
0.523446
0.0206691
-0.330822
0.00806846
0.514672
0.557095
0.432016
0.55006
0.527215
0.0415222
-0.316038
-0.0109814
0.474604
0.531259
0.395983
0.476354
0.575245
0.424707
0.430097
0.569835
0.343042
-0.0381236
0.023853
0.456413
0.596254
0.241106
-0.0453739
0.184077
0.569246
0.504427
0.0884516
-0.0238074
0.347021
0.614718
0.353417
-0.023119
0.082277
0.500229
0.567029
0.18175
-0.0424371
0.240893
0.577982
0.447241
0.0591684
-0.00129861
0.341324
0.575353
0.362494
0.018248
0.0671049
0.438597
0.506916
0.109888
-0.118119
0.196735
0.52301
0.399821
0.238974
0.428058
0.517509
0.142963
-0.141311
0.152203
0.519254
0.417457
0.236015
0.412793
0.51776
0.157567
-0.132389
0.146767
0.508472
0.41841
0.253302
0.419345
0.489313
0.133175
-0.104308
0.176373
0.471449
0.364089
0.330471
0.52117
0.184408
-0.346879
-0.271802
0.306196
0.48695
-0.0115592
-0.411472
-0.0881699
0.454161
0.363894
-0.220567
-0.378187
0.142398
0.51725
0.150114
-0.377132
-0.227448
0.35999
0.452456
-0.092684
-0.410204
-0.00591289
0.47815
0.295417
-0.253892
-0.334171
0.142696
0.447229
0.177168
-0.16638
0.0105688
0.456493
0.436589
-0.111564
-0.406791
-0.000263856
0.533346
0.599455
0.498402
0.599958
0.510861
-0.0419239
-0.406634
-0.0406152
0.51656
0.610089
0.511938
0.610003
0.520653
-0.0334032
-0.402186
-0.0453044
0.501186
0.600989
0.525887
0.621562
0.497686
-0.0345264
-0.297494
0.071944
0.409501
0.26632
0.171707
0.514358
0.39377
0.0393713
0.0825006
0.47308
0.583301
0.230334
-0.0400516
0.192494
0.569943
0.504245
0.0955156
-0.0133906
0.352793
0.615848
0.356844
-0.0138486
0.0932661
0.507649
0.571642
0.187364
-0.0350711
0.249466
0.5901
0.467291
0.0898819
0.0345222
0.364715
0.579342
0.386886
0.11635
0.188982
0.485923
0.529471
0.209791
0.0188091
0.274949
0.507564
0.286851
0.0596433
0.283182
0.51258
0.284641
0.0509621
0.279746
0.516793
0.292538
0.0611401
0.288535
0.517096
0.283582
0.0499364
0.278994
0.511737
0.293892
0.0778842
0.293229
0.487639
0.279108
0.138797
0.379001
0.487282
0.215607
0.14565
0.430797
0.549824
0.530825
0.527898
0.533547
0.508971
0.497583
0.51853
0.529212
0.517315
0.511436
0.518778
0.522981
0.520332
0.518716
0.519598
0.520736
0.521389
0.519341
0.5159
0.51901
0.526226
0.52121
0.507229
0.512815
0.536314
0.537673
0.523514
0.539511
0.548233
0.46844
0.360975
0.38998
0.520412
0.544567
0.517873
0.59387
0.479666
-0.0363736
-0.376925
-0.0280795
0.51292
0.608552
0.512556
0.607117
0.517654
-0.0343664
-0.40418
-0.0435931
0.513277
0.608813
0.51063
0.607532
0.522776
-0.0203508
-0.389642
-0.0530875
0.483578
0.603418
0.531393
0.596171
0.544487
0.261695
0.218129
0.157319
0.287719
0.516999
0.488584
0.147434
-0.00847415
0.303517
0.605026
0.396839
0.00141453
0.0562535
0.476149
0.589499
0.21718
-0.0468574
0.215467
0.587122
0.479585
0.0612173
-0.00964309
0.378871
0.614282
0.322007
-0.0420646
0.0921705
0.507588
0.549586
0.177291
-0.000588151
0.256995
0.483717
0.356403
0.186855
0.249255
0.341293
0.361621
0.46578
0.468978
0.134333
-0.111066
0.160539
0.507039
0.418238
0.253072
0.426837
0.518384
0.146294
-0.148785
0.13857
0.517467
0.431219
0.251454
0.419828
0.521504
0.160263
-0.147015
0.115371
0.510682
0.475011
0.265621
0.317058
0.463393
0.415668
0.277984
-0.00411873
0.0486086
0.345377
0.328406
-0.129094
-0.34043
0.0904411
0.500084
0.20235
-0.348387
-0.266278
0.323474
0.478246
-0.0496859
-0.420803
-0.0474434
0.477951
0.325132
-0.263597
-0.359855
0.186702
0.513485
0.105948
-0.391629
-0.197255
0.37259
0.415354
-0.117251
-0.376658
0.0056274
0.428265
0.394133
0.165343
0.0467485
-0.0667303
-0.129454
0.119417
0.475614
0.52494
0.451038
0.558033
0.498599
0.00813042
-0.318035
0.0255385
0.518645
0.548921
0.423143
0.547218
0.524979
0.0321767
-0.32292
0.00684799
0.513309
0.557295
0.415975
0.520636
0.541862
0.126758
-0.267891
-0.10581
0.362708
0.583658
0.228605
0.180303
0.275828
0.469772
0.467505
0.16789
0.0172496
0.310444
0.599043
0.390388
-0.000979125
0.0578123
0.478342
0.586938
0.209824
-0.0525875
0.214418
0.58692
0.478921
0.0653271
-0.000179896
0.384199
0.612146
0.327851
-0.0135337
0.129315
0.524286
0.542114
0.166288
-0.00492756
0.260078
0.534964
0.519153
0.386195
0.241847
0.00447963
-0.125736
0.129226
0.487134
0.516954
0.432139
0.546921
0.502112
0.0226499
-0.299679
0.038307
0.518477
0.536745
0.407082
0.536425
0.524525
0.0411771
-0.309823
0.0164102
0.512264
0.546376
0.406195
0.516791
0.531486
0.108012
-0.263276
-0.0616389
0.39079
0.552411
0.0583067
0.433136
0.578625
0.513138
0.49763
0.533748
0.527991
0.510005
0.522285
0.532291
0.51957
0.51265
0.522532
0.527352
0.520344
0.51608
0.518972
0.521112
0.521156
0.522456
0.522045
0.518056
0.515898
0.519266
0.524921
0.5259
0.514197
0.494899
0.503045
0.542967
0.521688
0.39672
0.340698
0.47268
0.563497
0.429222
0.332347
0.475202
0.493921
0.121461
-0.142497
0.1469
0.516899
0.44051
0.279104
0.446041
0.51978
0.130211
-0.170973
0.123269
0.516384
0.443552
0.270537
0.434651
0.518993
0.14122
-0.158797
0.120656
0.500567
0.437862
0.26666
0.389381
0.469873
0.231316
-0.00472377
0.48783
0.469798
0.0816543
0.0649889
0.451285
0.583107
0.241077
-0.0230098
0.213339
0.580048
0.50011
0.0945289
-0.00208549
0.364256
0.616922
0.353045
-0.0148117
0.0939805
0.507081
0.568441
0.178839
-0.0485017
0.238924
0.58181
0.439956
0.0310666
-0.0267925
0.344113
0.584172
0.315446
-0.121447
-0.134405
0.293252
0.58967
0.49626
0.420505
0.576139
0.500658
-0.0362016
-0.384186
-0.0215822
0.521883
0.604948
0.502727
0.602851
0.520893
-0.0269699
-0.396771
-0.0396488
0.512252
0.603819
0.506217
0.606952
0.52005
-0.0279439
-0.384017
-0.0266922
0.492685
0.567267
0.498714
0.607872
0.477399
-0.0482012
0.25307
0.52797
0.251826
-0.305834
-0.274128
0.293808
0.473375
-0.0269162
-0.411214
-0.0704946
0.461076
0.34826
-0.233914
-0.371168
0.154167
0.514894
0.140044
-0.380092
-0.224839
0.358419
0.44631
-0.0972984
-0.412838
-0.0112326
0.467009
0.277162
-0.274746
-0.347613
0.141724
0.445098
0.127743
-0.320519
-0.233299
0.267444
0.455854
0.130262
-0.0623317
0.245326
0.507787
0.289575
0.067755
0.297072
0.51568
0.263338
0.0160703
0.255228
0.516182
0.311473
0.0848029
0.303945
0.517668
0.268504
0.0281661
0.265869
0.511453
0.298159
0.0882126
0.315288
0.499409
0.244324
0.0654889
0.327845
0.461378
0.110379
0.506927
0.625153
0.359772
-0.0541342
0.0149164
0.465165
0.587387
0.204596
-0.0728668
0.183703
0.569877
0.487473
0.0713264
-0.0243736
0.351759
0.609796
0.344989
-0.0230888
0.0866214
0.499006
0.563863
0.186723
-0.0321864
0.243823
0.573997
0.456577
0.0979837
0.0452897
0.348469
0.54641
0.381904
0.14737
0.234181
0.53015
0.482849
-0.0413045
-0.358247
0.0041474
0.518603
0.590423
0.493846
0.598322
0.516432
-0.0378932
-0.413803
-0.051935
0.512302
0.611322
0.511625
0.61022
0.524678
-0.0330123
-0.410283
-0.0509618
0.506909
0.606945
0.520645
0.616451
0.503666
-0.0461002
-0.362536
0.011444
0.482729
0.48529
0.270481
0.45644
0.52649
0.460289
0.464726
0.535182
0.541521
0.498898
0.492092
0.518483
0.530604
0.522199
0.514174
0.514527
0.519959
0.525292
0.52506
0.520047
0.516872
0.518174
0.521365
0.526639
0.528
0.513487
0.498405
0.519362
0.557924
0.5386
0.473544
0.47961
0.55865
0.562655
0.502972
0.53698
0.518405
0.222665
-0.00481409
0.227477
0.527483
0.414329
0.232905
0.404975
0.520856
0.176241
-0.111289
0.165955
0.523471
0.408654
0.211567
0.393149
0.52267
0.176387
-0.119905
0.153644
0.518097
0.420513
0.235119
0.401308
0.506128
0.168076
-0.113239
0.131767
0.506515
0.532005
-0.19247
0.0310428
0.386866
0.58764
0.456441
0.122695
0.0262943
0.339983
0.603839
0.389296
0.0201641
0.0871027
0.489851
0.58443
0.216426
-0.0313748
0.231426
0.586776
0.472064
0.0662777
0.00367645
0.379031
0.597471
0.30622
-0.0432513
0.0965092
0.493846
0.497867
0.105635
-0.040679
0.237995
0.378504
0.148284
0.0620302
0.322754
0.485174
0.458623
0.535881
0.497404
0.045575
-0.301801
0.00632051
0.509459
0.564172
0.439291
0.557266
0.535568
0.0323874
-0.342129
-0.0122475
0.512044
0.567641
0.438478
0.553486
0.532817
0.0395825
-0.330231
-0.0147306
0.503501
0.577122
0.422704
0.457458
0.497276
0.274027
-0.177337
-0.0988151
0.224801
0.469261
0.283015
-0.1999
-0.329868
0.130859
0.501092
0.178696
-0.352299
-0.250506
0.32773
0.462815
-0.0605354
-0.414127
-0.0446576
0.460654
0.307358
-0.26106
-0.357628
0.160006
0.474619
0.0899107
-0.390002
-0.221375
0.299521
0.319673
-0.169745
-0.350075
-0.00828008
0.151209
-0.140976
-0.224365
0.173684
0.457343
0.413983
0.445487
0.447975
0.0604532
-0.278304
0.00628146
0.491611
0.524175
0.370343
0.490443
0.520116
0.0761224
-0.279871
0.0249832
0.507368
0.52704
0.382962
0.512882
0.528181
0.0653175
-0.299788
0.000816004
0.501919
0.562572
0.400645
0.435205
0.474009
0.22734
0.261225
0.240719
0.369318
0.496258
0.399977
0.107476
0.0233907
0.335865
0.593436
0.363913
-0.0179431
0.0534485
0.470742
0.573213
0.202448
-0.0536052
0.202614
0.565654
0.472634
0.0749396
-0.0105984
0.343865
0.5868
0.340373
-0.00731091
0.0868087
0.452131
0.479058
0.142709
0.0377452
0.300133
0.391643
0.153548
0.111045
0.368493
0.354253
0.0610262
0.122887
0.460188
0.461702
0.280405
0.396184
0.500116
0.150272
-0.183702
0.0722769
0.495664
0.472667
0.304154
0.447618
0.519943
0.1262
-0.194081
0.0952607
0.509743
0.456239
0.276193
0.422031
0.508536
0.154633
-0.143206
0.0956934
0.474883
0.483796
0.371795
0.518027
0.527451
0.443246
0.460305
0.535606
0.541723
0.512644
0.521241
0.535599
0.518696
0.50477
0.521085
0.539914
0.533943
0.513044
0.504482
0.524218
0.550581
0.540889
0.499153
0.493974
0.544711
0.560967
0.503533
0.479986
0.53891
0.538367
0.436395
0.43345
0.556153
0.544312
0.385715
0.409042
0.553476
0.345916
-0.0663886
0.00829655
0.477481
0.643967
0.533013
0.567612
0.515838
0.0475535
-0.324661
-0.0281946
0.500712
0.602676
0.5012
0.597509
0.531523
-0.00173008
-0.378408
-0.0367305
0.505858
0.594808
0.499313
0.601284
0.511027
-0.0289284
-0.360475
-0.00284081
0.479448
0.520561
0.0253556
0.44261
0.396111
0.054482
0.098236
0.49044
0.577322
0.213792
-0.018244
0.243316
0.587837
0.483213
0.0967567
0.0288607
0.380399
0.594588
0.332474
0.0116207
0.13497
0.4925
0.511488
0.180865
0.0297476
0.247193
0.447873
0.357823
0.177688
0.123475
0.149592
0.197973
0.241404
0.176103
0.0405886
0.0990481
0.329282
0.333499
0.118444
0.148924
0.362018
0.290712
0.107146
0.25312
0.477089
0.342715
0.153119
0.335663
0.514163
0.254047
0.00208446
0.23778
0.513391
0.331125
0.113145
0.323484
0.518246
0.256767
0.0265485
0.275845
0.50254
0.268973
0.0826894
0.328675
0.457189
0.133488
-0.0759236
0.398348
0.262654
-0.239052
-0.206987
0.316764
0.440686
-0.0640583
-0.40286
-0.0441311
0.451467
0.31503
-0.237373
-0.350496
0.141262
0.465428
0.120324
-0.346552
-0.218425
0.276465
0.359931
-0.060728
-0.311203
-0.0723
0.211466
0.144984
-0.068942
-0.14198
-0.120438
-0.0852619
-0.0263603
-0.0473729
-0.197464
-0.211724
0.0668617
0.339344
0.380353
0.349742
0.243522
-0.0885195
-0.311399
-0.0290475
0.430527
0.543525
0.484056
0.587854
0.507072
-0.0382247
-0.416753
-0.06814
0.491148
0.594801
0.499653
0.603591
0.521642
-0.0331613
-0.397711
-0.0335569
0.496161
0.570771
0.504514
0.615151
0.455947
-0.11549
0.311915
0.591935
0.411451
-0.000910507
0.0407647
0.460725
0.565332
0.194377
-0.0594963
0.191916
0.551456
0.468059
0.0771558
-0.0214335
0.317861
0.574995
0.361894
0.0127807
0.0563649
0.406774
0.520847
0.25514
0.0509678
0.182237
0.379805
0.355258
0.233946
0.205155
0.207707
0.204351
0.265019
0.307173
0.201835
0.112125
0.237043
0.432072
0.503748
0.488617
0.356379
0.0579719
-0.0808611
0.198012
0.498122
0.382668
0.1932
0.371806
0.514134
0.185683
-0.104952
0.16502
0.523265
0.403768
0.188807
0.365289
0.511098
0.181374
-0.108666
0.15703
0.508432
0.423063
0.26445
0.414542
0.474929
0.172653
0.507181
0.575888
0.531528
0.41994
0.439444
0.540485
0.565499
0.520896
0.496676
0.511034
0.537136
0.551731
0.534259
0.495135
0.495231
0.554644
0.580969
0.514316
0.460858
0.52726
0.603158
0.542516
0.454126
0.506015
0.603523
0.555635
0.447869
0.473334
0.566411
0.568122
0.503043
0.488128
0.529266
0.565337
0.52003
0.373192
0.297368
0.427109
0.530496
0.392077
0.308109
0.521604
0.597691
0.155105
-0.251822
0.0202278
0.524732
0.569804
0.425239
0.549589
0.568817
0.0909267
-0.312926
-0.0218736
0.500804
0.5722
0.441836
0.539381
0.530479
0.0980605
-0.248103
-0.00936546
0.44292
0.57035
0.111953
0.114063
0.327308
0.514981
0.440206
0.162873
0.0811067
0.355759
0.571309
0.366001
0.0588188
0.145156
0.47995
0.518027
0.213158
0.0628467
0.262316
0.448431
0.367859
0.235004
0.233156
0.237885
0.214387
0.307846
0.434653
0.318395
0.0716912
0.103955
0.394173
0.480356
0.205122
-0.00410417
0.19544
0.532068
0.483002
0.0521855
-0.14795
0.177618
0.493005
0.329603
0.11148
0.324756
0.534226
0.180673
-0.253515
-0.0361437
0.460424
0.507586
0.331069
0.436856
0.51492
0.133877
-0.232464
0.0191662
0.48961
0.537677
0.39962
0.496468
0.517523
0.129252
-0.229414
-0.045893
0.416441
0.58351
-0.241253
-0.195533
0.172004
0.47134
0.31712
-0.148991
-0.292711
0.108445
0.434507
0.153259
-0.302175
-0.219138
0.250179
0.357673
-0.030872
-0.282166
-0.0733244
0.191029
0.156571
0.0155845
-0.0263625
-0.0801836
-0.124941
0.0458349
0.274301
0.131495
-0.248494
-0.251697
0.176464
0.359633
-0.0297536
-0.398431
-0.155327
0.367069
0.39422
-0.10114
-0.318751
0.0962678
0.440711
0.126582
-0.285832
-0.0618739
0.428649
0.428308
0.145979
0.211083
0.391276
0.158625
-0.15399
0.0249553
0.415479
0.445135
0.300061
0.40948
0.480348
0.144965
-0.142979
0.095688
0.472155
0.461365
0.268586
0.315459
0.478284
0.382816
0.0137547
0.0978527
0.3719
0.571609
0.462846
0.134571
0.0195833
0.300983
0.559548
0.377425
0.0218435
0.0384865
0.383489
0.513357
0.260774
0.057146
0.174401
0.356567
0.34976
0.281744
0.274991
0.212576
0.132533
0.253555
0.470161
0.396223
0.0897955
0.0498015
0.377625
0.554928
0.278963
-0.0260514
0.116795
0.497133
0.538377
0.1992
0.0526119
0.355465
0.581788
0.287244
-0.0875019
0.063003
0.49164
0.599383
0.466866
0.48247
0.466555
0.131949
-0.157034
0.0418352
0.448828
0.565375
0.515403
0.590261
0.495278
0.00775066
-0.313709
-0.00787981
0.481572
0.588607
0.464714
0.476452
0.51769
0.342172
0.422111
0.465395
0.471275
0.470405
0.513493
0.525776
0.485546
0.499092
0.586804
0.59961
0.491222
0.438487
0.54206
0.626698
0.537646
0.438024
0.507908
0.61356
0.555587
0.448133
0.490563
0.584454
0.557252
0.474696
0.489023
0.553884
0.553535
0.507153
0.499694
0.534277
0.552029
0.534229
0.505438
0.499897
0.5131
0.509807
0.497194
0.51349
0.524382
0.475238
0.440464
0.483902
0.480351
0.376871
0.380816
0.539423
0.548901
0.333202
0.255482
0.456533
0.551544
0.306349
0.128165
0.338109
0.514236
0.298196
0.114301
0.329409
0.540303
0.357903
0.11931
0.22245
0.434973
0.432313
0.399273
0.396147
0.186991
0.0235524
0.189232
0.46663
0.455085
0.214861
0.142811
0.306001
0.408777
0.341292
0.291089
0.305145
0.24042
0.176961
0.309557
0.480005
0.347916
0.0563617
0.0861365
0.426239
0.548366
0.241439
-0.0245605
0.165775
0.5283
0.508377
0.129336
-0.0269701
0.287374
0.594145
0.414482
0.0294378
0.0423293
0.416902
0.549682
0.241854
-0.0100372
0.191129
0.562378
0.564689
0.155351
-0.13274
0.0721877
0.422832
0.402378
0.176451
0.267098
0.585842
0.520837
-0.0218012
-0.330981
0.0205553
0.49076
0.527138
0.412345
0.508889
0.510774
0.142116
-0.161103
0.0182885
0.348322
0.421214
0.195538
0.274759
0.0679864
-0.146007
0.0152809
0.329704
0.29831
-0.0409839
-0.189827
-0.0119136
0.149555
0.118417
0.073469
0.0585164
-0.074977
-0.178921
0.027943
0.318607
0.176733
-0.256292
-0.28683
0.184253
0.42925
0.0371464
-0.386227
-0.163801
0.375058
0.389756
-0.154128
-0.411901
0.0239156
0.476232
0.234731
-0.310899
-0.283975
0.277465
0.485165
0.0172937
-0.391648
-0.113238
0.433383
0.44432
-0.0729222
-0.332509
0.0346824
0.425938
0.236669
-0.167613
-0.0725085
0.396997
0.47819
0.0189768
-0.258173
0.0694847
0.474433
0.421507
0.206804
0.283464
0.425011
0.266398
0.0747974
0.202837
0.385658
0.319229
0.242399
0.475159
0.399933
0.205833
0.271516
0.494444
0.489245
0.242353
0.115713
0.225952
0.332349
0.314672
0.309118
0.324802
0.21064
0.087904
0.228897
0.488535
0.424854
0.0897809
0.0222013
0.361103
0.574799
0.308388
-0.0184516
0.120473
0.516011
0.544217
0.155696
-0.0396453
0.268159
0.59428
0.418317
0.0202001
0.0392636
0.451841
0.609531
0.268998
-0.0412272
0.140702
0.517617
0.520438
0.180796
0.0602924
0.362609
0.603875
0.367801
-0.0231092
0.00723815
0.39864
0.578479
0.383879
0.250889
0.407071
0.507159
0.282817
0.0406409
0.163649
0.463592
0.545647
0.484489
0.507956
0.484535
0.311289
0.358786
0.625282
0.60447
0.396928
0.360611
0.529655
0.618497
0.511227
0.427705
0.513718
0.607457
0.544504
0.450344
0.494421
0.576215
0.548466
0.476122
0.491608
0.552286
0.553417
0.509247
0.498916
0.529605
0.543409
0.526094
0.510529
0.517793
0.530837
0.529725
0.52064
0.520757
0.528288
0.524415
0.512333
0.511434
0.519311
0.519408
0.516238
0.519889
0.517422
0.501152
0.492196
0.505561
0.522513
0.521983
0.505961
0.477347
0.444517
0.437717
0.459869
0.483669
0.524356
0.580853
0.556306
0.409178
0.260536
0.254292
0.394946
0.516238
0.508121
0.494204
0.533886
0.488288
0.3752
0.262504
0.415475
0.351721
0.108694
0.0240858
0.199433
0.339869
0.232512
0.113161
0.260678
0.473294
0.359901
0.0542911
0.0624983
0.409591
0.56543
0.272201
-0.0229403
0.14029
0.519072
0.53356
0.158409
-0.0248955
0.271896
0.592349
0.433851
0.0385981
0.0247212
0.41682
0.601295
0.288607
-0.0280471
0.149939
0.544278
0.535481
0.13167
-0.0409674
0.288772
0.612495
0.431427
0.0369259
0.0499771
0.436708
0.565675
0.220435
-0.0553436
0.175695
0.56972
0.549642
0.165143
-0.014105
0.243922
0.500631
0.349231
0.0657358
0.130506
0.45204
0.567822
0.336828
0.091151
0.144314
0.343855
0.388502
0.335178
0.179645
0.214011
0.156421
-0.0214938
-0.0781658
0.0805702
0.167435
-0.0384999
-0.233523
-0.0312051
0.308849
0.199093
-0.249475
-0.313659
0.158547
0.44293
0.0708964
-0.384082
-0.197055
0.356039
0.412739
-0.12181
-0.409988
0.00682864
0.482441
0.269358
-0.300745
-0.330725
0.229584
0.498601
0.0511381
-0.407498
-0.152891
0.419709
0.415749
-0.1582
-0.406194
0.0570599
0.504655
0.237656
-0.313721
-0.270774
0.29777
0.485984
-0.00842378
-0.410676
-0.0917315
0.46544
0.428833
-0.117288
-0.331843
0.0774963
0.434773
0.210226
-0.147684
-0.00227118
0.443242
0.522829
0.131616
-0.162728
0.0131637
0.331057
0.37651
0.255385
0.331549
0.304518
0.339514
0.338238
0.331316
0.391419
0.407884
0.239063
0.0698834
0.203734
0.483386
0.440056
0.100939
0.00935733
0.340173
0.575301
0.325478
-0.0168331
0.0996249
0.500864
0.553172
0.169541
-0.0461614
0.249291
0.595228
0.446891
0.0371167
0.0123275
0.413573
0.608204
0.287917
-0.0433235
0.135514
0.544786
0.545519
0.139998
-0.0353758
0.292346
0.603332
0.401794
0.00365759
0.0412725
0.459728
0.604992
0.258072
-0.0342855
0.174163
0.547369
0.50415
0.123304
0.013535
0.346852
0.599222
0.410004
0.12924
0.201995
0.481251
0.516263
0.257245
0.114613
0.303591
0.525729
0.490262
0.321743
0.45418
0.32765
0.421451
0.587438
0.570774
0.444484
0.439694
0.529377
0.537643
0.478236
0.482269
0.538765
0.549473
0.510056
0.495477
0.523414
0.539764
0.52591
0.512337
0.519056
0.529626
0.526814
0.517927
0.517051
0.524113
0.526225
0.52044
0.517071
0.521824
0.525987
0.522506
0.517708
0.517717
0.519959
0.520562
0.51995
0.520406
0.523373
0.524256
0.516335
0.506782
0.508784
0.516919
0.519236
0.520808
0.524943
0.520276
0.505249
0.493362
0.498628
0.521589
0.533977
0.518066
0.509133
0.523524
0.51115
0.462784
0.444158
0.479614
0.523333
0.522562
0.480953
0.45117
0.437419
0.357872
0.0696764
0.137682
0.388304
0.308597
-0.0274193
-0.0529189
0.322862
0.539147
0.273279
-0.042492
0.0981167
0.490433
0.53581
0.168767
-0.0335244
0.250091
0.585528
0.450206
0.0523553
0.0150962
0.401368
0.608805
0.310136
-0.0275117
0.126281
0.531229
0.55135
0.154269
-0.0366892
0.279108
0.607343
0.432305
0.0272319
0.0272462
0.431663
0.604935
0.277803
-0.0306044
0.16676
0.5601
0.530818
0.119986
-0.0340187
0.308447
0.611824
0.405368
0.0219043
0.0659803
0.463123
0.587534
0.242098
-0.0373631
0.18158
0.552632
0.505142
0.151255
0.0810486
0.398206
0.580584
0.338201
0.062233
0.165535
0.429202
0.279281
-0.0577099
-0.00627121
0.261259
0.161408
-0.257755
-0.330564
0.1176
0.411235
0.0662354
-0.393871
-0.234548
0.320534
0.411084
-0.107804
-0.417896
-0.0219513
0.46941
0.286229
-0.285961
-0.346847
0.204896
0.50678
0.0839193
-0.399775
-0.182701
0.396269
0.427614
-0.13869
-0.41318
0.0359085
0.504807
0.258381
-0.315406
-0.314604
0.258916
0.501804
0.0316466
-0.410555
-0.127075
0.4399
0.402865
-0.18053
-0.399078
0.0845228
0.508141
0.212441
-0.323737
-0.248642
0.317179
0.481012
-0.0124203
-0.387752
-0.0595103
0.466831
0.406585
-0.082754
-0.189103
0.241532
0.483663
0.143404
-0.204556
0.0051271
0.409236
0.347043
0.19868
0.269826
0.464708
0.434597
0.173267
0.0871894
0.343172
0.539144
0.318752
-0.00330643
0.0928703
0.48076
0.549907
0.179844
-0.0481749
0.231933
0.585799
0.456846
0.0471287
0.00132476
0.393851
0.609749
0.309454
-0.0353446
0.118103
0.530098
0.553372
0.15118
-0.0444637
0.27386
0.606578
0.431861
0.0250633
0.0261841
0.433745
0.605532
0.268792
-0.0493113
0.149982
0.553802
0.52949
0.117143
-0.034732
0.310993
0.608774
0.392276
0.00747309
0.0611334
0.46486
0.58437
0.244238
-0.0104753
0.217981
0.575038
0.518983
0.153844
0.0587298
0.370477
0.563545
0.322674
0.0657085
0.216352
0.492377
0.349806
0.472196
0.472828
0.438884
0.490911
0.562227
0.540356
0.470983
0.467317
0.514847
0.532312
0.515089
0.509431
0.52024
0.523033
0.517683
0.518235
0.52369
0.523826
0.520332
0.519864
0.522117
0.522822
0.520698
0.518899
0.519842
0.52211
0.522339
0.52063
0.519927
0.520693
0.520969
0.519792
0.518451
0.519176
0.522223
0.52365
0.520516
0.51635
0.51612
0.518756
0.519224
0.517266
0.51841
0.523148
0.524207
0.518272
0.511274
0.509681
0.513768
0.521863
0.533924
0.537386
0.51761
0.498353
0.49832
0.486849
0.468932
0.497664
0.544123
0.529362
0.481963
0.475102
0.484889
0.229461
0.476206
0.289049
-0.0486025
0.0189799
0.38883
0.457968
0.109267
-0.08579
0.205215
0.548875
0.424689
0.0364526
-0.00393689
0.376019
0.596417
0.317898
-0.0242227
0.107704
0.513747
0.560763
0.173197
-0.041055
0.256343
0.600071
0.449817
0.0412407
0.0170237
0.416142
0.611593
0.295424
-0.0360202
0.137928
0.543561
0.543513
0.139251
-0.0321561
0.299751
0.614145
0.417912
0.0204715
0.0468286
0.455072
0.603552
0.260337
-0.0337832
0.181264
0.563023
0.511527
0.114162
0.00271803
0.354517
0.610584
0.363517
0.0114278
0.107611
0.478107
0.552037
0.282109
0.145573
0.346167
0.541786
0.43628
0.247448
0.213993
0.431688
0.157488
-0.297824
-0.260656
0.188153
0.295946
-0.139636
-0.411862
-0.047817
0.408507
0.237022
-0.301751
-0.358915
0.174264
0.482356
0.0869849
-0.394839
-0.205769
0.367908
0.432382
-0.115283
-0.416125
0.00595797