# vtk DataFile Version 3.0
PFC-RG simulation results
ASCII
DATASET STRUCTURED_POINTS
DIMENSIONS 64 64 1
ORIGIN 0 0 0
SPACING 1 1 1
POINT_DATA 4096
SCALARS psi double
LOOKUP_TABLE default
0.495382
0.543222
0.528209
0.465508
0.482111
0.53694
0.53518
0.506259
0.515455
0.540855
0.534067
0.505609
0.509384
0.548703
0.557528
0.50766
0.478298
0.539573
0.590005
0.523162
0.445613
0.513428
0.613364
0.552806
0.445307
0.499383
0.618827
0.566631
0.423195
0.439575
0.58022
0.612126
0.521021
0.4735
0.496781
0.501255
0.463971
0.430797
0.438231
0.473024
0.518215
0.547255
0.407784
0.067311
-0.0819279
0.216302
0.558178
0.565673
0.50634
0.615621
0.507268
-0.0273973
-0.358354
0.00584287
0.5348
0.615704
0.515739
0.595218
0.512727
0.0286928
-0.309478
-0.0393613
0.447188
0.61031
0.0343108
0.0475718
0.303361
0.545267
0.462105
0.117829
-0.00485717
0.304456
0.584157
0.387088
0.0148033
0.0522389
0.440549
0.568851
0.238022
-0.038377
0.159745
0.521291
0.488353
0.123945
-0.00973283
0.271578
0.508136
0.370725
0.151974
0.178255
0.312522
0.327256
0.326087
0.397118
0.345212
0.152737
0.152253
0.401878
0.483136
0.260278
0.166722
0.413967
0.575184
0.316916
0.0202719
0.159114
0.449215
0.377038
0.175655
0.291406
0.455888
0.299923
0.159577
0.367229
0.503397
0.202462
-0.04981
0.204041
0.503765
0.355463
0.151233
0.330883
0.512426
0.276534
-0.0213615
0.0852428
0.408179
0.500405
-0.284328
-0.290552
0.080145
0.451387
0.324399
-0.191213
-0.363047
0.0936309
0.484599
0.182652
-0.345876
-0.265342
0.295849
0.449143
-0.042397
-0.401975
-0.0769517
0.410061
0.299651
-0.213353
-0.326225
0.102403
0.380107
0.120772
-0.20418
-0.143367
0.0894885
0.156099
0.142478
0.151004
-0.00481887
-0.256956
-0.168682
0.257088
0.404918
0.091923
-0.0466507
0.303561
0.499719
0.0640301
-0.396507
-0.160759
0.410924
0.574461
0.451205
0.489386
0.42803
-0.0313198
-0.346666
-0.011116
0.496422
0.565375
0.456612
0.559997
0.509462
0.00219632
-0.364686
-0.0435293
0.499077
0.609236
0.43219
0.396873
0.459725
0.342946
0.0341198
0.0321004
0.27604
0.528698
0.463831
0.128707
0.0125996
0.329072
0.601156
0.382519
0.00795001
0.0750239
0.478634
0.577865
0.220809
-0.0207784
0.229117
0.566701
0.459938
0.0931178
0.0513677
0.382313
0.549234
0.30951
0.0727729
0.166712
0.365415
0.382504
0.321425
0.302851
0.177784
-0.00992191
0.0903729
0.456176
0.525364
0.131496
-0.078712
0.267261
0.544396
0.23561
-0.124192
0.0851247
0.480989
0.454581
0.284744
0.43215
0.517791
0.132972
-0.193276
0.0845179
0.508732
0.491055
0.340921
0.482269
0.526124
0.10926
-0.220661
0.0607235
0.491811
0.488261
0.30381
0.366612
0.51284
0.437636
0.426023
0.520093
0.515314
0.449276
0.469058
0.534055
0.543388
0.519876
0.517526
0.524336
0.523664
0.524362
0.525311
0.518983
0.516943
0.52993
0.538396
0.524427
0.504768
0.515051
0.548521
0.553181
0.508357
0.475928
0.523565
0.580874
0.534311
0.436249
0.46133
0.575631
0.54578
0.391192
0.402534
0.592352
0.53898
0.110594
-0.123743
0.215862
0.605415
0.547286
0.399322
0.531903
0.539462
0.092502
-0.2312
0.0967372
0.55889
0.535953
0.366395
0.494588
0.522869
0.0896593
-0.236957
0.0716318
0.51649
0.503607
0.359193
0.488524
0.495683
0.077158
-0.202463
0.0853767
0.467451
0.496529
0.264412
0.559431
0.38224
-0.0164458
0.0350942
0.46327
0.585855
0.223003
-0.0462374
0.195199
0.569089
0.493386
0.0843802
-0.0211856
0.341328
0.602524
0.35146
-0.0157454
0.0742078
0.473827
0.556139
0.200464
-0.0426601
0.185127
0.531555
0.488734
0.133074
-0.0376712
0.197157
0.504226
0.48362
0.225587
0.129916
0.295693
0.350365
0.0871039
-0.0707767
0.214677
0.516144
0.443991
0.362909
0.544654
0.515886
0.00202881
-0.343077
0.0105748
0.519086
0.555517
0.438895
0.567282
0.525054
0.00405769
-0.355326
-0.0110878
0.501272
0.558777
0.466088
0.583764
0.497322
-0.0108656
-0.265727
0.0937999
0.390386
0.21067
-0.0510118
0.411824
0.220341
-0.306987
-0.255975
0.305795
0.465048
-0.0403412
-0.416694
-0.0734553
0.457131
0.348203
-0.231198
-0.374034
0.143384
0.504762
0.139768
-0.372168
-0.224862
0.341037
0.432002
-0.0825957
-0.392346
-0.0355904
0.421687
0.300303
-0.185896
-0.332402
0.0348294
0.392515
0.274754
-0.133906
-0.293069
-0.0105446
0.316813
0.320817
0.252712
0.403975
0.42229
0.0548259
-0.157883
0.170281
0.502912
0.358466
0.16976
0.365423
0.494092
0.160233
-0.0979581
0.19407
0.523893
0.377306
0.183088
0.376846
0.503082
0.175745
-0.0643262
0.217878
0.493227
0.334754
0.22994
0.4585
0.411862
-0.102326
0.113151
0.513947
0.395117
0.0135073
0.0638037
0.476099
0.583495
0.217765
-0.045556
0.202151
0.576595
0.498918
0.0928638
-0.00385446
0.36226
0.614186
0.353695
-0.00350155
0.108875
0.507448
0.561797
0.200579
0.00256143
0.261247
0.558198
0.454062
0.138575
0.0749588
0.331673
0.546986
0.404251
0.0240563
-0.14303
0.137716
0.514051
0.556985
0.45671
0.528336
0.451855
-0.0366494
-0.353107
0.00163866
0.520073
0.59912
0.508751
0.608484
0.51024
-0.0479417
-0.405502
-0.0310153
0.521995
0.610917
0.519945
0.619081
0.512544
-0.0468235
-0.389342
-0.0189541
0.495066
0.568622
0.517659
0.636896
0.510738
0.0337572
0.458884
0.564693
0.536574
0.463142
0.489212
0.54168
0.532055
0.506011
0.513617
0.525965
0.518122
0.511552
0.519895
0.527841
0.524102
0.516163
0.515314
0.525061
0.532198
0.520888
0.505113
0.518608
0.54875
0.536533
0.490713
0.497396
0.559154
0.560126
0.497266
0.507021
0.553175
0.4611
0.340624
0.443378
0.568764
0.373925
0.140894
0.294164
0.50275
0.30931
0.0864445
0.28766
0.513181
0.319363
0.117398
0.332577
0.520184
0.249832
0.00375671
0.250122
0.518191
0.326945
0.114168
0.326238
0.513984
0.248893
0.00749436
0.244695
0.514795
0.357007
0.143849
0.288485
0.493558
0.445373
0.338531
0.170155
0.273058
0.50359
0.472444
0.138897
0.000857792
0.315584
0.602733
0.38578
-0.00635066
0.052504
0.472473
0.585563
0.212355
-0.0557043
0.203323
0.579392
0.478895
0.0574953
-0.0245685
0.362587
0.607937
0.31659
-0.0529484
0.0911258
0.513782
0.522367
0.120075
-0.0103066
0.318836
0.560386
0.486012
0.420964
0.349942
0.0101028
-0.262825
0.0125781
0.494487
0.597618
0.510853
0.588996
0.493556
-0.0342743
-0.38125
-0.0259054
0.512235
0.595269
0.493485
0.594972
0.519228
-0.021153
-0.391681
-0.0426663
0.509156
0.606283
0.490762
0.56895
0.539007
0.0953991
-0.30871
-0.152589
0.339234
0.616639
-0.0626017
-0.236997
0.0320889
0.424231
0.349935
-0.168141
-0.368885
0.0912457
0.503825
0.199021
-0.350922
-0.267611
0.320477
0.477773
-0.0459353
-0.419995
-0.053809
0.472288
0.327702
-0.258489
-0.36174
0.178606
0.503657
0.0948551
-0.393069
-0.178024
0.380938
0.367135
-0.175218
-0.338334
0.107929
0.439265
0.336595
0.236945
0.239874
0.0608607
-0.0886568
0.153821
0.462857
0.398998
0.271871
0.443477
0.50546
0.114079
-0.182132
0.113253
0.511661
0.453307
0.290914
0.451598
0.52201
0.123738
-0.195014
0.0938257
0.515302
0.475564
0.282743
0.401633
0.527133
0.244897
-0.126201
-0.0678165
0.316887
0.516871
-0.0893882
-0.0633908
0.252168
0.560812
0.500469
0.12785
-0.0188997
0.306661
0.605582
0.396425
0.00845656
0.0652344
0.479132
0.590702
0.223611
-0.0379504
0.219529
0.587721
0.486049
0.0778482
0.0101979
0.390252
0.613378
0.322284
-0.0144226
0.146918
0.535689
0.510238
0.132973
0.0438893
0.336643
0.460604
0.294355
0.279144
0.443666
0.459509
0.423989
0.529118
0.449052
-0.0131726
-0.284782
0.0729334
0.532686
0.529469
0.396622
0.528774
0.520374
0.0473468
-0.290928
0.0369719
0.518429
0.533748
0.390617
0.515986
0.5302
0.0776624
-0.290738
-0.0156672
0.485328
0.575132
0.387344
0.368838
0.491588
0.451997
0.256892
0.406751
0.504867
0.491409
0.493032
0.521309
0.521178
0.509903
0.515722
0.524521
0.523651
0.52024
0.51845
0.517731
0.520921
0.525261
0.522409
0.515967
0.517368
0.524582
0.526225
0.522706
0.520599
0.517583
0.517698
0.528328
0.527798
0.497918
0.495317
0.557883
0.555373
0.381573
0.261384
0.424104
0.604432
0.524323
0.447092
0.565596
0.476218
-0.0197434
-0.308314
0.0572062
0.533731
0.547458
0.427296
0.556569
0.523418
0.0188655
-0.333747
0.00550582
0.514604
0.560061
0.435389
0.551279
0.527601
0.0427762
-0.317151
-0.0169618
0.469813
0.533096
0.396854
0.469077
0.574204
0.450769
0.448111
0.579633
0.347396
-0.035278
0.0241815
0.45566
0.598515
0.245713
-0.0433902
0.182474
0.56836
0.506442
0.0906303
-0.0237588
0.346313
0.614835
0.353452
-0.0239654
0.0818918
0.500915
0.566322
0.178042
-0.0453086
0.243283
0.580831
0.441291
0.0495561
0.00302728
0.358441
0.577969
0.339044
-0.00596046
0.0611517
0.438014
0.501096
0.109327
-0.108431
0.204261
0.52177
0.396896
0.239214
0.428854
0.516913
0.142398
-0.140777
0.153064
0.519355
0.415986
0.232797
0.409709
0.517894
0.161286
-0.128566
0.147769
0.507878
0.418233
0.25204
0.415994
0.488013
0.136137
-0.103597
0.170143
0.467647
0.375406
0.322666
0.515193
0.18607
-0.34391
-0.275402
0.300724
0.488403
-0.00580605
-0.410601
-0.0928474
0.451417
0.365968
-0.218265
-0.378784
0.141033
0.517018
0.149979
-0.377374
-0.226197
0.361874
0.451323
-0.0966648
-0.410551
0.000498642
0.481994
0.286491
-0.265046
-0.324705
0.168797
0.453127
0.143795
-0.212201
-0.0169099
0.445183
0.427036
-0.119782
-0.410353
-0.00291321
0.530898
0.599049
0.49767
0.597753
0.510343
-0.0401658
-0.405943
-0.041917
0.515814
0.610734
0.512234
0.609711
0.521284
-0.0322059
-0.402482
-0.0471492
0.50005
0.601283
0.525583
0.620312
0.498988
-0.0292077
-0.292411
0.0727507
0.406015
0.259169
0.155865
0.505711
0.397711
0.0454517
0.0803583
0.467126
0.583279
0.235105
-0.0385578
0.189286
0.567766
0.50595
0.0980489
-0.0128118
0.352244
0.615722
0.35743
-0.0122949
0.095988
0.510012
0.571434
0.185699
-0.0332194
0.256603
0.595047
0.46219
0.0826409
0.0418707
0.382809
0.583602
0.372802
0.110883
0.207081
0.508514
0.536426
0.203476
0.00761647
0.2642
0.505131
0.292122
0.0616284
0.27933
0.511236
0.287986
0.052734
0.278196
0.516307
0.294164
0.0617566
0.287711
0.517026
0.284084
0.0493676
0.277948
0.511497
0.293332
0.075307
0.290279
0.488273
0.284345
0.145919
0.385326
0.488295
0.204653
0.142031
0.430626
0.554204
0.535919
0.529928
0.532524
0.507836
0.498105
0.519905
0.529704
0.516553
0.510953
0.519682
0.524036
0.519801
0.517372
0.519627
0.522062
0.521847
0.518416
0.515115
0.518912
0.526467
0.522308
0.508436
0.511521
0.533976
0.538609
0.523584
0.533137
0.549685
0.496094
0.399028
0.405355
0.513207
0.538299
0.51518
0.58796
0.479892
-0.0268539
-0.372483
-0.0337886
0.508448
0.610248
0.513777
0.605878
0.518728
-0.0312637
-0.403952
-0.0461075
0.512035
0.609267
0.510766
0.607562
0.523389
-0.020467
-0.391147
-0.0541829
0.484092
0.603907
0.530759
0.596857
0.546161
0.258267
0.22769
0.161829
0.283393
0.51224
0.491278
0.151921
-0.0106464
0.297767
0.603922
0.399715
0.00140723
0.0526427
0.473957
0.58958
0.215964
-0.0493668
0.214779
0.587094
0.476408
0.0566717
-0.0104138
0.380648
0.612636
0.316716
-0.0455773
0.0926235
0.509824
0.549775
0.16962
-0.0131725
0.258768
0.501922
0.350581
0.132255
0.190529
0.327611
0.373903
0.467075
0.465111
0.139382
-0.107396
0.155279
0.502588
0.419106
0.252283
0.423428
0.519012
0.150917
-0.146474
0.137628
0.516782
0.430705
0.249355
0.417855
0.522008
0.162902
-0.14311
0.119641
0.511871
0.469349
0.255053
0.309357
0.462897
0.419273
0.287825
-0.00105894
0.0371725
0.333239
0.330573
-0.120575
-0.341242
0.0824742
0.49801
0.207389
-0.345895
-0.269292
0.320933
0.478821
-0.0490639
-0.420668
-0.0458085
0.478925
0.322356
-0.266196
-0.356584
0.192385
0.513704
0.101428
-0.393537
-0.193843
0.378733
0.420134
-0.120019
-0.385394
0.00610166
0.432144
0.356673
0.0745234
-0.0300226
-0.07535
-0.106927
0.120168
0.462806
0.523154
0.454225
0.55648
0.498859
0.0122838
-0.318481
0.0198186
0.516222
0.55154
0.425213
0.547643
0.526268
0.0328582
-0.325065
0.00428543
0.513302
0.559534
0.419488
0.524152
0.541714
0.12082
-0.275474
-0.109013
0.364329
0.587784
0.22855
0.18291
0.270215
0.46233
0.470639
0.177114
0.0194837
0.30582
0.598192
0.396044
0.00410133
0.0583158
0.477569
0.588125
0.212643
-0.048892
0.218136
0.588391
0.478209
0.0670785
0.00630396
0.390198
0.613061
0.327446
-0.0103584
0.134434
0.529185
0.547219
0.167313
-0.00995876
0.262626
0.548749
0.511995
0.342048
0.205415
0.0125053
-0.105116
0.124763
0.47338
0.517173
0.4373
0.546776
0.504417
0.0299857
-0.296809
0.0345512
0.515522
0.535993
0.404295
0.533388
0.525954
0.0453878
-0.307064
0.0174896
0.512033
0.54351
0.40184
0.513841
0.530209
0.108879
-0.25738
-0.0526419
0.394343
0.548453
0.0497316
0.435465
0.580804
0.511414
0.497483
0.537052
0.530202
0.508638
0.520272
0.53285
0.522049
0.513961
0.521228
0.525465
0.520769
0.51843
0.519622
0.518508
0.518934
0.524152
0.524702
0.516363
0.51175
0.519456
0.528841
0.526111
0.510879
0.495464
0.505247
0.539524
0.524467
0.422545
0.373081
0.484741
0.564194
0.43771
0.338226
0.467888
0.490066
0.129999
-0.137752
0.140961
0.513855
0.445607
0.282873
0.445836
0.521465
0.132015
-0.175267
0.116402
0.515111
0.4478
0.275258
0.437722
0.518965
0.136453
-0.165288
0.117454
0.501287
0.442375
0.276666
0.39965
0.468476
0.217163
-0.0105836
0.48818
0.470143
0.0770305
0.0570575
0.445944
0.582859
0.241342
-0.0273001
0.20676
0.577046
0.500381
0.0926759
-0.00687866
0.360965
0.615994
0.350243
-0.0201794
0.0909978
0.507573
0.565977
0.170364
-0.0553117
0.240585
0.584692
0.433318
0.0205583
-0.0262704
0.353409
0.585681
0.311373
-0.111545
-0.112374
0.305789
0.587596
0.489685
0.412315
0.569633
0.505938
-0.0240063
-0.383955
-0.0340571
0.514489
0.606471
0.501973
0.599983
0.52549
-0.0179754
-0.394609
-0.0440228
0.509383
0.603364
0.50489
0.605632
0.520197
-0.0271244
-0.381543
-0.0221888
0.494612
0.564536
0.49653
0.607602
0.472257
-0.0598713
0.255958
0.528373
0.249908
-0.31059
-0.282238
0.287085
0.474031
-0.0222078
-0.411546
-0.0766083
0.457579
0.350784
-0.231229
-0.372315
0.152272
0.514709
0.139691
-0.380661
-0.222683
0.361744
0.444849
-0.102894
-0.413203
-0.00307987
0.472209
0.269711
-0.284247
-0.341167
0.160374
0.452287
0.114019
-0.340312
-0.247534
0.255831
0.445061
0.121394
-0.072329
0.236859
0.509844
0.297017
0.0652392
0.287514
0.515323
0.269216
0.0117601
0.243879
0.515107
0.321191
0.0917063
0.304607
0.517484
0.266684
0.0219344
0.25976
0.511043
0.303401
0.0968559
0.323046
0.498598
0.233157
0.0530358
0.321871
0.460775
0.112199
0.508274
0.62496
0.361815
-0.0492387
0.0169937
0.463563
0.589449
0.212804
-0.0659878
0.184076
0.56899
0.491599
0.0783357
-0.0199537
0.352892
0.610627
0.34754
-0.0183882
0.0925006
0.503004
0.563975
0.186571
-0.0267048
0.25362
0.57866
0.451699
0.0934122
0.0532497
0.364721
0.552462
0.367768
0.122923
0.214469
0.52161
0.485849
-0.0350361
-0.363724
-0.0119403
0.509957
0.592342
0.492807
0.595683
0.526277
-0.0223344
-0.414003
-0.0662607
0.504298
0.613654
0.512922
0.609285
0.527924
-0.0285167
-0.410987
-0.0544364
0.505826
0.608013
0.522328
0.617655
0.501093
-0.0524964
-0.366562
0.0131857
0.487815
0.492012
0.258853
0.448206
0.52613
0.468161
0.471176
0.532905
0.536214
0.499559
0.497281
0.520032
0.527059
0.519969
0.516743
0.517793
0.519293
0.52227
0.524448
0.522637
0.518487
0.515943
0.518108
0.526648
0.530577
0.514137
0.495306
0.515505
0.556631
0.539395
0.473495
0.477189
0.555735
0.562888
0.506996
0.543805
0.53127
0.236747
-0.00711404
0.210115
0.519258
0.420074
0.233505
0.398312
0.525462
0.191935
-0.105329
0.159304
0.519753
0.408927
0.205431
0.384773
0.524105
0.185695
-0.112778
0.156349
0.518034
0.416115
0.227498
0.396095
0.506227
0.173617
-0.102468
0.142463
0.509493
0.527891
-0.206475
0.0157263
0.373776
0.583061
0.455581
0.115186
0.0118559
0.328761
0.601022
0.388029
0.0133189
0.0777686
0.484961
0.583548
0.213693
-0.0369275
0.227664
0.585922
0.469411
0.0601024
-0.000641536
0.379571
0.596658
0.298575
-0.0518159
0.0959149
0.497303
0.492461
0.0897556
-0.0517345
0.245674
0.397757
0.156119
0.049494
0.309641
0.486752
0.460517
0.53146
0.503645
0.0614643
-0.301175
-0.0118311
0.497641
0.567965
0.442764
0.556757
0.542294
0.0414098
-0.345539
-0.0236564
0.507984
0.571726
0.442091
0.555415
0.534607
0.0379355
-0.335523
-0.0176671
0.505578
0.582256
0.429799
0.462384
0.492284
0.259045
-0.171662
-0.103246
0.209996
0.457353
0.280052
-0.201526
-0.337466
0.121446
0.498237
0.181352
-0.352204
-0.255306
0.323751
0.46326
-0.0589887
-0.414483
-0.0450915
0.461586
0.307406
-0.262442
-0.35626
0.165072
0.476001
0.0832051
-0.395707
-0.215434
0.309745
0.315328
-0.190454
-0.36519
-0.00106307
0.163562
-0.159133
-0.277114
0.126849
0.446131
0.41963
0.448442
0.457622
0.0767346
-0.277048
-0.010715
0.479389
0.523477
0.36542
0.482428
0.525765
0.0910356
-0.275031
0.0190038
0.502954
0.524519
0.376558
0.507139
0.529389
0.0701948
-0.295628
0.00441642
0.501995
0.555063
0.390203
0.428495
0.468443
0.218546
0.280314
0.254417
0.369861
0.492047
0.403148
0.118129
0.0316297
0.337164
0.594819
0.371493
-0.00837781
0.0581651
0.471659
0.576034
0.208247
-0.0483238
0.20539
0.567229
0.474708
0.0781856
-0.00565919
0.34934
0.588483
0.336592
-0.0096021
0.0935768
0.461875
0.476453
0.126003
0.0246978
0.302663
0.392488
0.125676
0.0610724
0.334936
0.351258
0.0588752
0.106205
0.449184
0.464854
0.281162
0.392679
0.508781
0.164173
-0.189612
0.0514801
0.488124
0.481446
0.309988
0.446969
0.522406
0.128757
-0.199835
0.0866007
0.508075
0.460976
0.282587
0.427663
0.508075
0.144137
-0.155611
0.0925889
0.479541
0.489134
0.369615
0.524198
0.529198
0.437083
0.456539
0.541257
0.54904
0.511655
0.515316
0.534641
0.523655
0.507925
0.518949
0.537226
0.535112
0.516035
0.504502
0.520953
0.548365
0.542005
0.501149
0.494006
0.542658
0.558333
0.502152
0.480596
0.538631
0.53273
0.427093
0.42865
0.558514
0.544047
0.376866
0.405114
0.56703
0.356854
-0.0889955
-0.033891
0.455235
0.64322
0.527834
0.56202
0.533407
0.0753885
-0.322664
-0.0498545
0.48821
0.605536
0.500508
0.592587
0.536985
0.0113368
-0.37266
-0.0396861
0.502665
0.59353
0.498365
0.601752
0.512722
-0.027027
-0.354886
0.00767886
0.487361
0.522406
-0.00210104
0.423601
0.3773
0.0311317
0.0769747
0.477997
0.569105
0.201121
-0.0348519
0.230094
0.581287
0.478807
0.089305
0.0194855
0.374275
0.593391
0.331626
0.00760818
0.130865
0.491696
0.511523
0.178643
0.0277827
0.248983
0.450256
0.353813
0.165993
0.110882
0.143523
0.197224
0.236725
0.16284
0.0324317
0.115535
0.361226
0.340013
0.0829993
0.117038
0.374611
0.31621
0.0964406
0.221661
0.4725
0.36324
0.15998
0.325098
0.513633
0.26351
-0.00188217
0.222559
0.51037
0.342998
0.122475
0.324056
0.516835
0.254844
0.0202913
0.26763
0.500234
0.276669
0.0970416
0.339581
0.454178
0.119244
-0.085353
0.382465
0.242902
-0.257657
-0.221769
0.305167
0.431174
-0.0720848
-0.409663
-0.050349
0.447441
0.314645
-0.237615
-0.354619
0.136076
0.46549
0.12519
-0.34267
-0.216973
0.278073
0.361281
-0.0613411
-0.310277
-0.0656305
0.218396
0.140511
-0.0865848
-0.160396
-0.129061
-0.0906205
-0.0455723
-0.0847686
-0.230903
-0.216555
0.0798126
0.332056
0.350973
0.352477
0.303486
-0.0310095
-0.317906
-0.0757868
0.406106
0.55095
0.488918
0.584175
0.517114
-0.0193034
-0.416226
-0.0857005
0.480369
0.596507
0.49941
0.599417
0.52408
-0.0255884
-0.398359
-0.0449129
0.487011
0.57119
0.506958
0.611114
0.446068
-0.124731
0.333125
0.599483
0.415886
0.00998354
0.0530991
0.466341
0.567992
0.202544
-0.0466355
0.2007
0.55539
0.475127
0.0879399
-0.0150568
0.317582
0.575645
0.367987
0.020161
0.0610011
0.409609
0.522227
0.253507
0.0495535
0.18636
0.385942
0.352502
0.219581
0.189864
0.200115
0.198581
0.247338
0.273354
0.16708
0.0955525
0.235053
0.421119
0.484896
0.500399
0.411194
0.107267
-0.0805712
0.170033
0.487579
0.39278
0.194659
0.362073
0.516829
0.200917
-0.100086
0.15694
0.519502
0.405337
0.182958
0.356336
0.515178
0.196431
-0.100908
0.153532
0.50829
0.428377
0.2594
0.398958
0.469592
0.186966
0.502809
0.567104
0.530889
0.429384
0.445872
0.536593
0.560122
0.523409
0.503088
0.510195
0.529079
0.547562
0.538008
0.499451
0.494508
0.552015
0.580006
0.513988
0.460749
0.530034
0.607333
0.541683
0.448852
0.504177
0.606864
0.557085
0.444031
0.46945
0.565981
0.568635
0.502055
0.485564
0.526499
0.564758
0.520894
0.368573
0.287441
0.425357
0.540953
0.400559
0.306897
0.52188
0.611026
0.171001
-0.254448
0.0021091
0.514167
0.571756
0.425445
0.5473
0.575472
0.101716
-0.313486
-0.0307753
0.499341
0.578123
0.443164
0.540576
0.547649
0.121642
-0.247422
-0.0291316
0.435151
0.583587
0.0558736
0.0614143
0.290872
0.486762
0.405883
0.125507
0.0529914
0.33727
0.553892
0.344469
0.0361385
0.126406
0.466698
0.510181
0.210699
0.0642256
0.262236
0.443341
0.363158
0.240267
0.246613
0.245778
0.211826
0.304492
0.437334
0.323065
0.0744827
0.106596
0.396092
0.479448
0.206713
0.0071605
0.211821
0.541566
0.482483
0.0495754
-0.146811
0.176444
0.48023
0.311463
0.105748
0.335533
0.549807
0.188043
-0.260113
-0.0494249
0.452688
0.504034
0.321727
0.425994
0.516197
0.144222
-0.230289
0.00985336
0.480173
0.529512
0.385683
0.485525
0.526783
0.1475
-0.23316
-0.0704404
0.397285
0.568089
-0.27551
-0.232654
0.143279
0.441393
0.278103
-0.184331
-0.31244
0.094973
0.418815
0.142046
-0.304394
-0.221837
0.238473
0.344783
-0.0317787
-0.269159
-0.0589493
0.194323
0.152951
0.0205984
-0.00896847
-0.0652192
-0.122184
0.0436969
0.275354
0.133088
-0.249843
-0.253663
0.17309
0.34974
-0.0426508
-0.402711
-0.150368
0.366817
0.381587
-0.111524
-0.312524
0.106451
0.433632
0.108669
-0.291292
-0.0536462
0.433426
0.423349
0.139997
0.212705
0.398787
0.161056
-0.165553
0.00548648
0.404622
0.446805
0.299593
0.400425
0.475664
0.149051
-0.146216
0.0776571
0.454955
0.453411
0.257816
0.301377
0.470497
0.365784
0.046944
0.116631
0.385726
0.580957
0.464331
0.13468
0.0253538
0.305529
0.561277
0.388591
0.045133
0.0588811
0.387887
0.506623
0.256583
0.0661049
0.193049
0.369293
0.349463
0.279168
0.281752
0.223049
0.136534
0.252449
0.469328
0.393913
0.0833535
0.043371
0.373649
0.546794
0.262764
-0.0415137
0.110392
0.492429
0.524862
0.185719
0.0546811
0.365605
0.580966
0.277844
-0.089199
0.0681712
0.490295
0.591382
0.465101
0.491891
0.477975
0.13543
-0.164079
0.0283096
0.4404
0.568519
0.51806
0.586196
0.505417
0.0433328
-0.281876
-0.00829663
0.466031
0.588928
0.478483
0.491476
0.537699
0.359067
0.442927
0.456671
0.455478
0.473853
0.523647
0.519685
0.466946
0.484769
0.583063
0.597776
0.4824
0.431122
0.548261
0.636661
0.529898
0.419537
0.504163
0.625537
0.562187
0.441125
0.483426
0.585711
0.561265
0.476752
0.490546
0.554594
0.551101
0.50487
0.503287
0.540371
0.551708
0.528435
0.504644
0.506073
0.516187
0.506659
0.495298
0.513893
0.521611
0.471664
0.441904
0.486151
0.476449
0.37197
0.384137
0.546055
0.54638
0.322864
0.247658
0.452912
0.553056
0.315842
0.134402
0.33405
0.522794
0.332795
0.144362
0.334381
0.554134
0.405861
0.159373
0.217871
0.421805
0.447805
0.371842
0.30515
0.0875527
-0.0228496
0.166535
0.410739
0.377474
0.170495
0.140862
0.290095
0.342058
0.27287
0.288078
0.348418
0.251697
0.139354
0.2788
0.488101
0.367885
0.0573509
0.0753335
0.423019
0.553778
0.247043
-0.0205416
0.170251
0.531465
0.509728
0.13449
-0.0156077
0.2977
0.597597
0.417048
0.0391466
0.0553083
0.423486
0.547462
0.235503
-0.0146245
0.191724
0.565282
0.562367
0.147618
-0.134241
0.0815894
0.426435
0.385258
0.152345
0.256977
0.586696
0.522213
-0.0195297
-0.333177
0.00883481
0.485163
0.529743
0.394656
0.480817
0.533221
0.210535
-0.154272
-0.0833639
0.243674
0.403237
0.218126
0.203736
-0.0231597
-0.18616
-0.00692626
0.265343
0.213987
-0.0693375
-0.149095
0.012124
0.089617
0.0355775
0.0727039
0.13133
-0.0318296
-0.204609
-0.00587901
0.326303
0.204605
-0.246583
-0.294696
0.180044
0.433621
0.0408781
-0.386363
-0.163313
0.376247
0.387295
-0.1586
-0.412138
0.0272788
0.4756
0.228465
-0.314599
-0.28043
0.28156
0.482176
0.00965244
-0.395346
-0.110035
0.436424
0.438527
-0.0835074
-0.332523
0.0473704
0.429791
0.218873
-0.186331
-0.0712769
0.405521
0.474968
0.00779264
-0.270181
0.0598765
0.479915
0.43382
0.189464
0.249298
0.438424
0.30849
0.0257704
0.0440502
0.271805
0.342405
0.304957
0.494061
0.399572
0.206041
0.269945
0.47728
0.459027
0.23397
0.156928
0.277852
0.329887
0.274842
0.30899
0.378204
0.25262
0.0834792
0.21283
0.495133
0.443058
0.0960012
0.0170141
0.358088
0.576561
0.307659
-0.0238193
0.116156
0.514904
0.540542
0.146109
-0.0491821
0.264515
0.591798
0.409269
0.0077919
0.0326167
0.451014
0.60727
0.263896
-0.0436442
0.143233
0.519717
0.515694
0.172543
0.0601061
0.37133
0.60595
0.358336
-0.0246658
0.023689
0.412102
0.572357
0.371258
0.243802
0.407167
0.533793
0.346231
0.102163
0.19121
0.480513
0.558013
0.445635
0.431151
0.476904
0.410194
0.279835
0.654613
0.635772
0.347631
0.305373
0.548706
0.653512
0.478998
0.365908
0.500785
0.630762
0.551098
0.435801
0.485121
0.578218
0.553097
0.4812
0.495547
0.55178
0.550601
0.509493
0.502623
0.5323
0.542241
0.522861
0.50989
0.521621
0.53438
0.527589
0.516036
0.521709
0.534248
0.526389
0.507841
0.507725
0.520524
0.521859
0.516622
0.519106
0.517207
0.501793
0.492248
0.5043
0.522012
0.521851
0.501836
0.472648
0.45038
0.449992
0.458759
0.470538
0.523885
0.589497
0.546195
0.401292
0.312558
0.354528
0.457081
0.503595
0.481082
0.518489
0.603741
0.547477
0.390855
0.0315534
0.441598
0.37648
-0.0438257
-0.133421
0.229065
0.447666
0.206247
-0.0301734
0.173376
0.495826
0.402307
0.0427144
0.0161021
0.38211
0.574517
0.293683
-0.0186269
0.127735
0.511927
0.541449
0.169663
-0.0213427
0.270741
0.593357
0.438563
0.0455805
0.0316468
0.420777
0.602919
0.293015
-0.0190256
0.158357
0.547887
0.536651
0.13429
-0.0364382
0.292822
0.612902
0.428148
0.0352206
0.053531
0.441283
0.564914
0.213621
-0.0632509
0.173748
0.574059
0.545755
0.142171
-0.0331677
0.260335
0.524222
0.311485
-0.0236335
0.0912306
0.495995
0.581746
0.238296
-0.0111972
0.191623
0.482008
0.381133
0.108935
0.0466426
0.349956
0.237565
-0.184674
-0.264884
0.116468
0.327628
0.00395381
-0.326988
-0.0981313
0.342967
0.264787
-0.23144
-0.34012
0.139224
0.457682
0.0983191
-0.377509
-0.210688
0.349174
0.422674
-0.111511
-0.411495
0.00132195
0.482332
0.272154
-0.300092
-0.331399
0.22947
0.498058
0.0497219
-0.408034
-0.151854
0.420538
0.414518
-0.160519
-0.40629
0.0595617
0.504689
0.232532
-0.317629
-0.267297
0.303526
0.485008
-0.0153283
-0.414318
-0.0868435
0.471352
0.419367
-0.144555
-0.347328
0.101949
0.463612
0.164773
-0.269153
-0.0898734
0.448259
0.510004
-0.00316004
-0.310201
0.0295624
0.438833
0.287631
-0.0975666
0.402913
0.505204
0.450773
0.262925
0.228559
0.421735
0.520464
0.301831
0.0672561
0.203034
0.514306
0.482297
0.12793
0.0155862
0.340087
0.585161
0.341983
-0.0113456
0.0920664
0.496582
0.558608
0.172663
-0.0524982
0.242231
0.594312
0.446531
0.0316384
0.00548547
0.410431
0.606582
0.282992
-0.0508669
0.130141
0.542818
0.542953
0.134718
-0.0395443
0.292271
0.603473
0.398271
0.000466173
0.0432721
0.463082
0.603765
0.255175
-0.031797
0.181992
0.552905
0.499744
0.110038
0.00612148
0.360043
0.616599
0.386417
0.059567
0.159451
0.513373
0.544801
0.194419
0.0228327
0.310002
0.599599
0.447853
0.126476
0.52029
0.343103
0.404303
0.592114
0.608402
0.46902
0.42545
0.518276
0.567529
0.51625
0.482756
0.518984
0.549629
0.528282
0.504335
0.517845
0.53522
0.52765
0.51475
0.520327
0.530512
0.525288
0.514635
0.51719
0.528109
0.527859
0.517255
0.514411
0.523985
0.529736
0.522469
0.51433
0.516121
0.52215
0.522748
0.518794
0.518049
0.52336
0.52584
0.516901
0.506662
0.508994
0.515989
0.517361
0.5217
0.528112
0.519582
0.500697
0.49297
0.502437
0.518228
0.521994
0.51112
0.509631
0.519577
0.510713
0.48453
0.474224
0.491341
0.52173
0.537095
0.522377
0.497143
0.482568
0.272786
-0.176201
-0.0480478
0.436106
0.473664
0.0244543
-0.145019
0.25117
0.579732
0.340125
-0.0495386
0.0452269
0.472217
0.561049
0.187263
-0.0453192
0.232686
0.585862
0.462064
0.0593487
0.0132399
0.398091
0.610874
0.317312
-0.0208485
0.128419
0.531198
0.553992
0.160171
-0.0311813
0.281826
0.608669
0.434796
0.0314908
0.0316026
0.434075
0.605109
0.277565
-0.029237
0.169628
0.561907
0.528823
0.115334
-0.0353987
0.31304
0.613462
0.394019
0.00690073
0.0679432
0.478259
0.583776
0.208799
-0.0630248
0.195245
0.575329
0.48198
0.0831139
0.0303967
0.408693
0.609341
0.312464
0.00118861
0.172878
0.530463
0.210091
-0.305838
-0.186573
0.340686
0.365768
-0.181361
-0.406278
0.0659675
0.47498
0.157691
-0.37567
-0.268161
0.312116
0.444083
-0.0788322
-0.421649
-0.0373847
0.470242
0.300166
-0.278801
-0.351698
0.199521
0.508992
0.0894131
-0.398373
-0.185542
0.394457
0.429168
-0.136742
-0.413577
0.0345457
0.504653
0.258763
-0.315677
-0.314609
0.25965
0.501387
0.0294697
-0.411473
-0.124868
0.441677
0.399902
-0.185432
-0.3979
0.0925138
0.510605
0.200046
-0.337873
-0.242672
0.336243
0.477346
-0.0486148
-0.412445
-0.0368565
0.492566
0.354025
-0.210945
-0.286923
0.244162
0.509745
0.0648407
-0.371331
-0.0862013
0.44962
0.445521
0.17878
0.243611
0.538046
0.549067
0.214228
0.0610393
0.341937
0.596062
0.383638
0.0220974
0.0885398
0.482803
0.571391
0.201412
-0.0448789
0.224834
0.585768
0.464358
0.0495938
-0.00427322
0.389166
0.610505
0.310252
-0.0390186
0.112981
0.52797
0.553364
0.149378
-0.0487232
0.270404
0.605535
0.430633
0.0217606
0.0231201
0.432997
0.605034
0.266565
-0.0509751
0.151113
0.555109
0.527805
0.11505
-0.0320473
0.317504
0.611091
0.386261
0.0017767
0.0675144
0.477578
0.581648
0.221617
-0.0230666
0.239103
0.597196
0.48495
0.073674
0.0155519
0.402709
0.596175
0.259087
-0.0710436
0.148919
0.556088
0.437057
0.582822
0.550934
0.451005
0.462742
0.550046
0.56984
0.511325
0.480384
0.510603
0.54037
0.532624
0.515618
0.515938
0.522783
0.523012
0.521666
0.523966
0.523666
0.51953
0.518783
0.523185
0.525178
0.520672
0.516605
0.519094
0.524004
0.523926
0.519815
0.518168
0.520536
0.52248
0.520578
0.517273
0.517833
0.522567
0.524723
0.52064
0.515973
0.516271
0.519008
0.519325
0.517975
0.519123
0.52239
0.523063
0.519107
0.51306
0.509672
0.512436
0.520895
0.532642
0.535354
0.517203
0.498782
0.497242
0.492552
0.488441
0.515117
0.543637
0.518821
0.474362
0.493699
0.556038
0.101533
0.535562
0.373891
-0.0859398
-0.0767856
0.384512
0.558309
0.189015
-0.10257
0.158104
0.557162
0.472472
0.0571622
-0.0207389
0.363049
0.606765
0.333226
-0.0208289
0.103796
0.512977
0.565222
0.17891
-0.0379802
0.256477
0.600454
0.452792
0.0449576
0.0186027
0.416124
0.612337
0.297385
-0.0340247
0.139283
0.544208
0.543529
0.139345
-0.0311016
0.301256
0.614355
0.416154
0.0187678
0.0478346
0.457401
0.601639
0.253175
-0.0374951
0.187433
0.569285
0.503906
0.0998396
0.00422238
0.373377
0.615945
0.333618
-0.0273216
0.108611
0.517949
0.555954
0.196449
0.0469222
0.353437
0.615831
0.422441
0.122648
0.0302437
0.480791
0.253698
-0.316867
-0.321527
0.234404
0.438064
-0.0452507
-0.429305
-0.0901048
0.432937
0.304274
-0.269154
-0.373163
0.161692
0.496423