# vtk DataFile Version 3.0
PFC-RG simulation results
ASCII
DATASET STRUCTURED_POINTS
DIMENSIONS 64 64 1
ORIGIN 0 0 0
SPACING 1 1 1
POINT_DATA 4096
SCALARS psi double
LOOKUP_TABLE default
0.486846
0.536639
0.50711
0.435749
0.466287
0.538725
0.531463
0.487715
0.50332
0.542888
0.52913
0.49163
0.519131
0.576139
0.548506
0.463874
0.480249
0.597667
0.602469
0.463797
0.420041
0.563182
0.639213
0.51406
0.422135
0.521116
0.624125
0.548075
0.431614
0.467234
0.580805
0.592571
0.515808
0.485561
0.51584
0.526444
0.496312
0.466489
0.462703
0.47486
0.510618
0.553038
0.440831
0.138337
0.0204299
0.300992
0.578287
0.543242
0.492866
0.610606
0.48423
-0.0478058
-0.334568
0.0581843
0.562127
0.608618
0.504235
0.586757
0.497477
0.0185057
-0.298267
-0.0168159
0.463138
0.618469
-0.0103859
0.0765643
0.33769
0.531565
0.433614
0.128689
0.0301943
0.311958
0.564536
0.385868
0.0436685
0.0720133
0.430474
0.55508
0.248231
-0.0144377
0.167889
0.498204
0.456058
0.137749
0.057389
0.308319
0.460842
0.329502
0.204223
0.238187
0.268804
0.251152
0.332047
0.434767
0.321402
0.110329
0.168561
0.443704
0.471264
0.18419
0.0808572
0.376497
0.597513
0.355752
0.0330908
0.149214
0.440734
0.379627
0.184001
0.293766
0.456067
0.327912
0.220953
0.410462
0.48526
0.153485
-0.0710122
0.214283
0.511889
0.364106
0.18137
0.360824
0.510962
0.269193
0.0150739
0.152591
0.433418
0.45529
-0.336226
-0.258689
0.127396
0.443198
0.281299
-0.205792
-0.343923
0.099498
0.463072
0.168557
-0.332461
-0.254087
0.276869
0.422119
-0.0370513
-0.369402
-0.0673344
0.372678
0.26201
-0.186739
-0.260476
0.106644
0.310979
0.107051
-0.104688
-0.0766108
0.00744934
0.0480065
0.152989
0.205022
-0.0210063
-0.28576
-0.130506
0.292044
0.333179
-0.0714828
-0.219259
0.191599
0.482139
0.106587
-0.364051
-0.164814
0.390837
0.554511
0.427439
0.452932
0.389803
-0.0354934
-0.30412
0.0351035
0.50018
0.537918
0.43705
0.550011
0.488056
-0.0142008
-0.345045
-0.00772282
0.506219
0.593556
0.442041
0.436552
0.459933
0.261961
0.00459459
0.0417306
0.294484
0.514259
0.422687
0.0978897
0.00484811
0.324511
0.58487
0.361789
-0.00399472
0.0690121
0.46592
0.559536
0.213679
-0.0104646
0.235293
0.549581
0.438531
0.103793
0.0804463
0.371752
0.502447
0.316894
0.158713
0.210633
0.294325
0.311996
0.358899
0.366308
0.18063
-0.00208647
0.156303
0.502881
0.508339
0.119246
-0.0648297
0.261306
0.529605
0.247533
-0.103108
0.0895986
0.485996
0.486762
0.334229
0.457521
0.494475
0.0862742
-0.22156
0.0822154
0.516006
0.507067
0.371297
0.504936
0.511947
0.0733577
-0.236019
0.0718285
0.49715
0.471464
0.2863
0.367607
0.504408
0.383211
0.42427
0.512342
0.510173
0.445634
0.463188
0.524632
0.535168
0.52018
0.523639
0.523198
0.513787
0.519925
0.532134
0.524112
0.51173
0.524876
0.542318
0.528872
0.501344
0.51419
0.556105
0.551604
0.492682
0.479762
0.556186
0.588887
0.500548
0.433709
0.519746
0.608639
0.52089
0.393601
0.456215
0.623373
0.585016
0.298601
0.144483
0.370479
0.614743
0.5269
0.403858
0.534706
0.539349
0.125325
-0.160396
0.159565
0.570256
0.503561
0.329314
0.474107
0.518091
0.103871
-0.200955
0.108288
0.524014
0.483139
0.33934
0.486372
0.502479
0.0750178
-0.215872
0.0812327
0.482596
0.510655
0.268502
0.544678
0.369994
-0.00805631
0.0573544
0.475883
0.582351
0.223608
-0.0292115
0.211717
0.570498
0.492778
0.0975895
-0.00475138
0.343065
0.595433
0.353464
-0.00565907
0.0758284
0.466907
0.555885
0.207589
-0.0417278
0.179547
0.52324
0.469814
0.121012
-0.0031299
0.250449
0.486967
0.408239
0.200841
0.14881
0.247599
0.288708
0.186597
0.145167
0.332486
0.494245
0.419043
0.394884
0.568631
0.491234
-0.033915
-0.350538
0.0241926
0.531283
0.567069
0.458552
0.582526
0.517441
-0.0189543
-0.36959
-0.00820098
0.510764
0.565756
0.469379
0.587421
0.507695
0.00110287
-0.264997
0.0924345
0.409975
0.248675
-0.0547197
0.395785
0.204268
-0.30919
-0.244982
0.311708
0.453979
-0.0547136
-0.416541
-0.0656247
0.455947
0.33957
-0.233757
-0.370207
0.142387
0.498338
0.137846
-0.369038
-0.228027
0.330861
0.427877
-0.0770711
-0.388164
-0.0392052
0.409543
0.278426
-0.196182
-0.302618
0.068478
0.355522
0.203817
-0.118038
-0.222915
-0.0560906
0.15486
0.21929
0.24441
0.365397
0.341868
0.0403468
-0.0880468
0.227335
0.486433
0.300314
0.119627
0.33683
0.485455
0.179565
-0.052983
0.233086
0.525451
0.345638
0.146726
0.356645
0.503894
0.190844
-0.0512783
0.219993
0.495874
0.344472
0.232755
0.450367
0.409032
-0.0939468
0.114773
0.508807
0.38388
-0.00150584
0.052929
0.470466
0.57311
0.199775
-0.060165
0.197052
0.573272
0.489203
0.0800916
-0.0123811
0.358012
0.610892
0.351196
-0.00519153
0.104656
0.501125
0.558716
0.201406
0.00420964
0.26468
0.560589
0.444244
0.126666
0.0885598
0.352601
0.524067
0.379901
0.115035
0.0282068
0.209945
0.452691
0.497752
0.440016
0.476533
0.372176
-0.0561268
-0.303732
0.045817
0.524153
0.592632
0.513617
0.609536
0.494944
-0.0632033
-0.402813
-0.0185747
0.528042
0.61067
0.519458
0.617673
0.511973
-0.0429594
-0.389086
-0.02939
0.486262
0.571304
0.519545
0.629211
0.502679
0.0302138
0.465441
0.570564
0.540841
0.457474
0.479013
0.540755
0.538194
0.50572
0.506077
0.523122
0.523607
0.515196
0.515693
0.522613
0.524367
0.519089
0.515959
0.523903
0.531886
0.522253
0.50619
0.516499
0.546137
0.54138
0.499574
0.492958
0.546539
0.568457
0.516605
0.489962
0.530397
0.528552
0.465227
0.49503
0.568736
0.452377
0.278381
0.356709
0.472439
0.275827
0.0837056
0.283902
0.507343
0.344899
0.173259
0.373776
0.51558
0.214257
-0.0309568
0.231478
0.518857
0.347887
0.143464
0.34322
0.514342
0.243645
-0.000790687
0.231896
0.508762
0.364215
0.150547
0.286928
0.495006
0.45423
0.328233
0.164176
0.280875
0.511945
0.472147
0.141268
0.0131995
0.326801
0.604288
0.3861
0.00147833
0.0619549
0.47558
0.585679
0.215461
-0.0518313
0.203246
0.577252
0.479561
0.0613084
-0.0228344
0.358406
0.603
0.31934
-0.0491409
0.079734
0.499552
0.536478
0.141871
-0.041351
0.256025
0.536814
0.440945
0.253703
0.17382
0.0172404
-0.115883
0.106492
0.483893
0.570303
0.507613
0.577896
0.46822
-0.0395995
-0.356081
-5.18773e-05
0.515028
0.582806
0.481634
0.586888
0.515884
-0.0147438
-0.380447
-0.0389212
0.505902
0.604604
0.488591
0.564056
0.543094
0.111186
-0.301284
-0.162447
0.32998
0.617075
-0.0792811
-0.260965
0.0245203
0.429088
0.348496
-0.174952
-0.369359
0.0950347
0.502975
0.194671
-0.352285
-0.266544
0.320116
0.477048
-0.0450518
-0.419887
-0.0568782
0.468749
0.327571
-0.255821
-0.361208
0.174658
0.501556
0.100877
-0.389272
-0.190834
0.3705
0.390029
-0.14906
-0.370147
0.0495267
0.420213
0.262535
-0.0226589
-0.078989
-0.0838096
-0.0655376
0.171934
0.426456
0.388583
0.312567
0.473903
0.488637
0.0762157
-0.20917
0.100766
0.511429
0.469799
0.318127
0.469795
0.520732
0.11034
-0.211533
0.0796057
0.51134
0.481855
0.285046
0.395732
0.529653
0.25892
-0.12628
-0.0924544
0.292968
0.507533
-0.0718707
-0.0752355
0.238293
0.558339
0.496975
0.11778
-0.0270292
0.303993
0.603306
0.391436
0.00295619
0.0612157
0.476639
0.589736
0.223602
-0.0384848
0.217804
0.58625
0.486819
0.0809676
0.0124557
0.38894
0.613723
0.331723
-0.00337443
0.144496
0.531449
0.529871
0.15606
0.0285888
0.324633
0.528386
0.363099
0.194048
0.254481
0.345948
0.409328
0.504514
0.390729
-0.030904
-0.239751
0.119891
0.536972
0.506371
0.374506
0.515217
0.516993
0.0592037
-0.269537
0.0512712
0.517949
0.524121
0.378027
0.506609
0.532657
0.0879343
-0.291041
-0.0297541
0.477204
0.578436
0.380235
0.346135
0.483103
0.471506
0.298186
0.42094
0.50453
0.492527
0.494365
0.519284
0.519264
0.510914
0.517425
0.524063
0.521799
0.519229
0.518481
0.517412
0.520075
0.525261
0.523045
0.515134
0.515375
0.525166
0.529141
0.521425
0.514596
0.517581
0.52685
0.531724
0.520602
0.498566
0.505287
0.551448
0.549887
0.443862
0.375689
0.486944
0.602309
0.538328
0.490079
0.573198
0.433394
-0.0581073
-0.310837
0.0681658
0.539252
0.556641
0.445314
0.569832
0.52198
0.00811769
-0.346024
-0.00423653
0.512699
0.566881
0.441977
0.553174
0.532789
0.0524308
-0.316074
-0.0279091
0.45996
0.528513
0.386715
0.454948
0.577997
0.483695
0.447714
0.589531
0.357378
-0.0297808
0.0252932
0.455532
0.600473
0.249186
-0.0416625
0.181359
0.567265
0.507661
0.0918923
-0.0259446
0.342104
0.613458
0.354687
-0.0263565
0.0742374
0.495829
0.56802
0.176927
-0.0575272
0.230716
0.580971
0.442834
0.0368159
-0.00932439
0.365016
0.577678
0.298831
-0.059357
0.037056
0.436765
0.507087
0.134959
-0.0657411
0.228028
0.507652
0.364504
0.210813
0.410118
0.51285
0.158498
-0.114143
0.170415
0.51827
0.401402
0.213171
0.395197
0.518868
0.174898
-0.119313
0.145275
0.505273
0.423259
0.257169
0.416109
0.486884
0.134452
-0.10915
0.156564
0.44027
0.340654
0.272406
0.505125
0.195782
-0.337988
-0.278803
0.295621
0.488584
-0.00249963
-0.410333
-0.0964901
0.449114
0.368394
-0.214815
-0.379874
0.136722
0.516438
0.154522
-0.375342
-0.231373
0.3572
0.455573
-0.0903877
-0.414436
-0.00850894
0.482043
0.290078
-0.273079
-0.332267
0.183924
0.466142
0.0980863
-0.321731
-0.131118
0.370214
0.37695
-0.165621
-0.445416
-0.0208682
0.526525
0.600478
0.496307
0.592143
0.507079
-0.0395298
-0.408766
-0.0498787
0.511699
0.613926
0.514889
0.609474
0.526008
-0.0234672
-0.402745
-0.0584834
0.491154
0.600526
0.525394
0.618461
0.500979
-0.0208462
-0.279774
0.0716621
0.35423
0.151801
0.131402
0.503057
0.405531
0.0508481
0.0794242
0.464014
0.58421
0.239904
-0.0353374
0.188306
0.566345
0.509086
0.104718
-0.00873547
0.351483
0.615984
0.364101
-0.00347822
0.0989245
0.508925
0.576068
0.197027
-0.0251975
0.258097
0.598132
0.467686
0.0822639
0.0402994
0.392846
0.595112
0.357528
0.0674235
0.173139
0.50319
0.52252
0.14972
-0.0632889
0.217052
0.50272
0.319988
0.0872597
0.288026
0.509494
0.2783
0.0312882
0.256268
0.515019
0.312802
0.077169
0.289381
0.516404
0.286624
0.0465781
0.270227
0.509311
0.293961
0.0665227
0.275219
0.482287
0.294912
0.169904
0.404998
0.467686
0.130207
0.179305
0.444628
0.550047
0.532227
0.532703
0.535023
0.507563
0.498876
0.523025
0.530921
0.513355
0.507987
0.521897
0.527974
0.518365
0.511795
0.518523
0.527403
0.524759
0.513584
0.510091
0.521495
0.531785
0.522062
0.504647
0.510229
0.534075
0.534806
0.512802
0.520421
0.549881
0.519931
0.44123
0.445368
0.528571
0.52638
0.489273
0.566116
0.481431
-0.0077055
-0.364459
-0.0443225
0.4993
0.609624
0.508832
0.598044
0.525415
-0.0134239
-0.399397
-0.0591555
0.502319
0.610645
0.51077
0.605273
0.530945
-0.00818592
-0.392716
-0.0691573
0.472931
0.601565
0.530162
0.599055
0.556225
0.272586
0.269283
0.162551
0.259617
0.497147
0.493338
0.154966
-0.0173392
0.288401
0.601702
0.401206
-0.00324197
0.0423019
0.467457
0.589227
0.213136
-0.059318
0.20499
0.584163
0.474823
0.0484836
-0.0218942
0.374124
0.61008
0.310642
-0.0556751
0.0857631
0.50958
0.547084
0.150696
-0.0407896
0.252958
0.518255
0.337596
0.0632427
0.119749
0.314537
0.396302
0.474312
0.456584
0.128676
-0.130462
0.12413
0.493139
0.437027
0.269183
0.426193
0.522771
0.157831
-0.153786
0.119152
0.510999
0.438384
0.247982
0.406985
0.525247
0.183141
-0.128609
0.120249
0.50994
0.460062
0.219242
0.26021
0.448189
0.458561
0.280556
-0.0241864
0.0171955
0.328766
0.33797
-0.11541
-0.347648
0.071085
0.495131
0.213936
-0.341989
-0.274172
0.315232
0.480331
-0.0443875
-0.420802
-0.0499729
0.477235
0.32424
-0.26494
-0.357488
0.191428
0.513452
0.100283
-0.396199
-0.195343
0.382236
0.42427
-0.128837
-0.405001
0.000124175
0.426906
0.278467
-0.0952261
-0.180843
-0.111688
-0.0804888
0.118707
0.435612
0.505769
0.439888
0.539666
0.502611
0.0370681
-0.306432
0.00786832
0.505393
0.55215
0.420929
0.539619
0.535036
0.0516532
-0.326771
-0.0179496
0.502951
0.570621
0.429095
0.525489
0.552654
0.134441
-0.297253
-0.169606
0.317671
0.588544
0.186558
0.153859
0.272249
0.476913
0.482526
0.185716
0.0227016
0.302643
0.59724
0.405034
0.017327
0.0647891
0.477333
0.591174
0.223596
-0.0367674
0.223803
0.58962
0.482988
0.0781301
0.0175973
0.395465
0.614756
0.332213
-0.00314793
0.138569
0.532043
0.552482
0.166473
-0.0207892
0.263704
0.563627
0.480427
0.233773
0.102048
-0.0111212
-0.096952
0.0998838
0.445862
0.528256
0.460187
0.554008
0.512398
0.0431173
-0.304207
0.00720642
0.502603
0.545127
0.408283
0.528001
0.535708
0.0681567
-0.302334
0.000690378
0.501494
0.542946
0.386907
0.489703
0.536853
0.152487
-0.225209
-0.0627664
0.367711
0.528655
0.015184
0.40795
0.5798
0.512109
0.489749
0.535279
0.536166
0.508828
0.512525
0.529632
0.528297
0.518992
0.516592
0.518368
0.522362
0.526075
0.520904
0.510951
0.514074
0.52924
0.530766
0.512706
0.504065
0.520096
0.534691
0.524652
0.504976
0.497626
0.50884
0.530851
0.524947
0.461699
0.420261
0.490952
0.548413
0.437675
0.332697
0.439123
0.481713
0.16396
-0.108281
0.136546
0.504034
0.445889
0.272257
0.427514
0.527852
0.158623
-0.169729
0.0959342
0.506087
0.460576
0.282677
0.433941
0.525167
0.146247
-0.183843
0.0774818
0.489525
0.476699
0.319437
0.422719
0.482112
0.220286
-0.00760553
0.472295
0.455254
0.0524235
0.0249372
0.427767
0.582228
0.239201
-0.0414488
0.190936
0.570452
0.497632
0.0830679
-0.021668
0.35131
0.612737
0.34355
-0.0338955
0.0794117
0.503848
0.561352
0.157073
-0.0681197
0.239399
0.586177
0.42256
0.00701949
-0.0214254
0.368175
0.582277
0.298999
-0.0951713
-0.073065
0.327958
0.589681
0.492017
0.408534
0.557479
0.51247
-0.000901025
-0.388673
-0.0722026
0.491348
0.61399
0.505987
0.594895
0.542707
0.0144553
-0.39248
-0.0746892
0.490183
0.607606
0.503623
0.596997
0.53378
0.00505952
-0.37012
-0.0403063
0.477455
0.557749
0.481366
0.593344
0.490651
-0.0223683
0.285317
0.538169
0.256289
-0.314526
-0.298828
0.273649
0.473421
-0.0184503
-0.413659
-0.0835639
0.453394
0.351908
-0.229626
-0.374426
0.148456
0.512866
0.139275
-0.381153
-0.222195
0.362577
0.441501
-0.109993
-0.414375
0.00543832
0.476523
0.257776
-0.29722
-0.33098
0.184863
0.456023
0.0896128
-0.366596
-0.266097
0.23486
0.429419
0.122002
-0.0698824
0.231563
0.511146
0.29949
0.0397186
0.247026
0.511677
0.301873
0.0249083
0.226145
0.510893
0.338422
0.0913862
0.284698
0.516465
0.282689
0.0144005
0.230992
0.507229
0.334584
0.125931
0.331914
0.498525
0.214763
-0.00209819
0.262708
0.45707
0.161499
0.501775
0.626709
0.389598
-0.0135717
0.0360545
0.466315
0.591621
0.223487
-0.0512181
0.193043
0.571439
0.497542
0.0927824
-0.00544146
0.358607
0.611921
0.354642
-0.00419303
0.105421
0.508273
0.564088
0.18924
-0.0165425
0.267081
0.584121
0.444228
0.0853705
0.0610106
0.383295
0.557294
0.347308
0.0908999
0.18588
0.502437
0.482098
-0.0298636
-0.374448
-0.0411346
0.493436
0.595903
0.487543
0.584961
0.550251
0.0248113
-0.407312
-0.107272
0.475747
0.61822
0.513722
0.60206
0.547516
0.00730039
-0.40972
-0.0886285
0.485032
0.613642
0.524238
0.613332
0.516145
-0.0298482
-0.375714
-0.0211092
0.476166
0.514424
0.190911
0.399998
0.52421
0.49142
0.485347
0.529207
0.527887
0.500082
0.505609
0.522659
0.51859
0.512886
0.52209
0.526798
0.517494
0.513055
0.522577
0.530236
0.522853
0.510815
0.512161
0.52802
0.535242
0.514774
0.491835
0.511153
0.552499
0.536899
0.474588
0.478442
0.552306
0.558786
0.511014
0.558721
0.551735
0.244639
-0.03555
0.161178
0.503461
0.446995
0.252443
0.391916
0.534986
0.221025
-0.108607
0.121305
0.506442
0.430626
0.210919
0.367144
0.530411
0.218346
-0.101251
0.140314
0.510547
0.414679
0.198359
0.355995
0.511662
0.229848
-0.0472487
0.166444
0.512108
0.512913
-0.247312
-0.0263166
0.348535
0.564865
0.433819
0.0942827
-0.00361149
0.317219
0.591067
0.374967
-0.00548734
0.0592813
0.474277
0.576659
0.201263
-0.053295
0.21632
0.579655
0.459402
0.0461112
-0.00877674
0.378427
0.590651
0.283823
-0.0621202
0.0976524
0.498404
0.481024
0.0760434
-0.0516222
0.258917
0.41217
0.165237
0.0570955
0.323216
0.49993
0.450828
0.510704
0.520601
0.111646
-0.287538
-0.0539972
0.463311
0.570486
0.439406
0.541629
0.564305
0.091736
-0.337356
-0.0656998
0.481115
0.581276
0.447909
0.55145
0.553
0.0646756
-0.348795
-0.0620514
0.488666
0.608146
0.462152
0.482396
0.504172
0.249568
-0.109592
-0.0537097
0.229452
0.440209
0.250934
-0.212206
-0.332023
0.121105
0.488929
0.175345
-0.351505
-0.255837
0.317971
0.456732
-0.0617932
-0.413796
-0.0450862
0.457203
0.29959
-0.266464
-0.351363
0.170863
0.469268
0.067282
-0.399754
-0.20086
0.319842
0.300714
-0.213844
-0.367868
0.0166262
0.171216
-0.182712
-0.315093
0.113384
0.467797
0.441706
0.458842
0.490235
0.122793
-0.282275
-0.070072
0.445212
0.540109
0.372745
0.466917
0.543299
0.137926
-0.271734
-0.0285714
0.475054
0.534084
0.372814
0.485778
0.541184
0.116022
-0.270704
-0.00809509
0.481815
0.530547
0.344116
0.384804
0.46744
0.249889
0.351116
0.334861
0.42309
0.498235
0.391963
0.128311
0.0579283
0.349622
0.592925
0.379815
0.0165915
0.0797688
0.476528
0.576336
0.220038
-0.0277889
0.219453
0.569614
0.474811
0.0859726
0.00921187
0.360525
0.586526
0.326591
-0.00858061
0.113089
0.47813
0.464399
0.0962076
0.0119595
0.313409
0.392134
0.087167
0.00961087
0.319493
0.370469
0.0574811
0.0724795
0.435862
0.479344
0.268986
0.360361
0.528999
0.229432
-0.173749
0.00310474
0.460277
0.49812
0.308439
0.420155
0.534165
0.175617
-0.19567
0.0384848
0.482433
0.485834
0.310538
0.434378
0.511997
0.136056
-0.203893
0.0297508
0.461679
0.526498
0.322712
0.497878
0.523865
0.42899
0.443153
0.538369
0.553576
0.50598
0.502272
0.532419
0.534075
0.51352
0.512157
0.531066
0.539834
0.524591
0.505914
0.517087
0.546157
0.541897
0.502404
0.498956
0.547729
0.553402
0.491324
0.482125
0.552551
0.533047
0.403846
0.41053
0.565672
0.553206
0.363466
0.393607
0.58954
0.37363
-0.148309
-0.14191
0.39843
0.649284
0.521173
0.5419
0.572476
0.153259
-0.31472
-0.12102
0.442501
0.619124
0.505518
0.577667
0.568005
0.0808167
-0.355671
-0.0907699
0.46468
0.599124
0.496951
0.583852
0.531598
0.034058
-0.312778
0.00409076
0.473366
0.520343
-0.098313
0.312428
0.314624
0.0102727
0.0581401
0.447473
0.536453
0.175175
-0.0512379
0.215742
0.558797
0.450646
0.0707218
0.0146264
0.366124
0.570872
0.308948
0.00322832
0.134282
0.478029
0.485407
0.172614
0.0484169
0.257599
0.422929
0.322942
0.167732
0.126741
0.139119
0.183868
0.240953
0.173213
0.03357
0.138467
0.427456
0.381602
0.0247274
0.0231059
0.368828
0.378681
0.103812
0.164573
0.453369
0.396582
0.154927
0.272793
0.507322
0.314429
0.0137285
0.184409
0.501314
0.380138
0.129737
0.290473
0.515454
0.286951
0.00447978
0.202877
0.486528
0.348829
0.175496
0.366385
0.454946
0.111663
-0.0884319
0.327906
0.228434
-0.232164
-0.213242
0.278829
0.399391
-0.0799175
-0.394114
-0.0437728
0.423339
0.284811
-0.235293
-0.329189
0.1378
0.432766
0.101843
-0.322838
-0.184057
0.271038
0.31878
-0.0795283
-0.276959
-0.0332633
0.19568
0.090254
-0.103268
-0.142986
-0.120242
-0.0987496
-0.0522427
-0.0966804
-0.252863
-0.20684
0.149071
0.397803
0.345231
0.340222
0.388883
0.0986102
-0.291337
-0.160991
0.339901
0.558175
0.495906
0.567282
0.547243
0.0539565
-0.402478
-0.151871
0.429651
0.597991
0.490813
0.57691
0.55816
0.0448283
-0.400411
-0.127369
0.4329
0.579141
0.498902
0.568016
0.445126
-0.0723533
0.368996
0.612054
0.466487
0.0645185
0.067477
0.455317
0.563864
0.216413
-0.0182234
0.223354
0.554182
0.469379
0.108352
0.0230793
0.334266
0.563449
0.361002
0.0465082
0.104447
0.424278
0.491937
0.219514
0.0617034
0.224901
0.388723
0.313287
0.190006
0.193244
0.208956
0.193832
0.235192
0.250561
0.132341
0.0815797
0.268086
0.463116
0.489386
0.511143
0.49712
0.221064
-0.0530756
0.109449
0.455207
0.43654
0.231263
0.348299
0.521859
0.244467
-0.0986413
0.100447
0.495071
0.438564
0.193748
0.330619
0.532563
0.255599
-0.0921121
0.106143
0.48611
0.423626
0.189844
0.297496
0.464354
0.283802
0.426944
0.555731
0.564433
0.408605
0.383559
0.520725
0.587755
0.51915
0.460474
0.487606
0.545312
0.563796
0.521253
0.471084
0.49729
0.584656
0.587089
0.476556
0.4396
0.561437
0.63311
0.506317
0.401883
0.507184
0.629769
0.547638
0.414383
0.458033
0.570651
0.568132
0.496683
0.481724
0.520244
0.55887
0.523513
0.367137
0.263331
0.400637
0.553642
0.434684
0.309874
0.498561
0.632643
0.248667
-0.217993
-0.0476855
0.465872
0.576821
0.421128
0.516565
0.601625
0.194412
-0.268119
-0.073755
0.459516
0.582767
0.440371
0.533332
0.591512
0.183695
-0.248306
-0.0657155
0.446063
0.624103
-0.0548755
0.0782262
0.309502
0.367893
0.262734
0.134935
0.149563
0.320474
0.413284
0.257853
0.0862202
0.187553
0.400546
0.379388
0.190737
0.171012
0.304119
0.31982
0.240675
0.287206
0.366505
0.248627
0.116481
0.258287
0.465209
0.341219
0.0542166
0.0903756
0.399323
0.478859
0.201175
0.0173567
0.235295
0.555385
0.479011
0.0380715
-0.163458
0.154385
0.460757
0.299537
0.0926435
0.325492
0.575037
0.239971
-0.262237
-0.1267
0.400797
0.524321
0.327352
0.382579
0.519876
0.224145
-0.197709
-0.0653669
0.401648
0.517243
0.384372
0.464654
0.531717
0.193074
-0.180225
-0.028526
0.394797
0.473857
-0.200093
-0.0707055
0.204165
0.312269
0.155721
-0.101533
-0.135662
0.112889
0.267436
0.0538346
-0.204445
-0.0901219
0.195358
0.188304
-0.0505683
-0.0996553
0.0439234
0.06701
-0.00221802
0.0808552
0.169822
-0.0171344
-0.215012
-0.0171601
0.301324
0.16111
-0.261765
-0.266727
0.176763
0.344494
-0.0590022
-0.401219
-0.12781
0.38107
0.378359
-0.107252
-0.289278
0.126643
0.43498
0.103868
-0.293464
-0.0575732
0.43699
0.43101
0.110485
0.153199
0.399261
0.235159
-0.141131
-0.0737554
0.33675
0.460952
0.292889
0.313956
0.43015
0.216614
-0.0838188
0.0198828
0.32438
0.366768
0.255266
0.322298
0.408088
0.190267
0.267188
0.28517
0.41279
0.516248
0.441486
0.212068
0.128768
0.329322
0.497348
0.336539
0.0937976
0.16623
0.410164
0.421051
0.226025
0.181864
0.30116
0.317473
0.252975
0.321555
0.408878
0.261997
0.0800884
0.219407
0.491097
0.409673
0.0713992
0.0356381
0.378899
0.541495
0.245195
-0.0473284
0.119462
0.493784
0.516592
0.195489
0.0894163
0.394159
0.586496
0.281567
-0.076615
0.0731471
0.486399
0.588916
0.451319
0.473232
0.510791
0.219091
-0.136351
-0.0467772
0.370753
0.582118
0.528315
0.541482
0.531311
0.203002
-0.15207
-0.0628997
0.305885
0.502987
0.495396
0.498249
0.465179
0.263665
0.542623
0.340609
0.326201
0.541296
0.645157
0.445758
0.272492
0.432848
0.669413
0.582955
0.321254
0.335291
0.589073
0.65725
0.455225
0.355715
0.510448
0.633337
0.543405
0.438145
0.49447
0.576397
0.545769
0.48663
0.507846
0.550514
0.53801
0.505936
0.512845
0.541158
0.546158
0.528709
0.507417
0.499655
0.506706
0.510537
0.505509
0.506356
0.500819
0.46735
0.453425
0.484786
0.465611
0.381662
0.407075
0.551766
0.547256
0.339845
0.247313
0.418597
0.553296
0.388198
0.193975
0.332227
0.555978
0.439636
0.19288
0.260377
0.514128
0.536825
0.329386
0.236997
0.360153
0.487821
0.305554
-0.105468
-0.139677
0.256514
0.477863
0.19486
-0.103519
0.0861001
0.450405
0.384384
0.0098659
-0.0284107
0.335819
0.495872
0.191881
-0.0490265
0.187895
0.518419
0.403863
0.0361311
0.0209593
0.389745
0.568189
0.282856
-0.00996197
0.152793
0.521206
0.519589
0.146044
-0.0130837
0.299939
0.603261
0.41764
0.0337248
0.0558476
0.430668
0.540179
0.203654
-0.0436605
0.193136
0.574857
0.541971
0.118016
-0.118526
0.130545
0.435868
0.337289
0.101656
0.234136
0.583764
0.551236
0.0411651
-0.297817
-0.00851488
0.457577
0.474907
0.235007
0.292413
0.548685
0.468006
0.0283005
-0.200918
0.0752982
0.469363
0.19653
-0.219429
-0.204189
0.222535
0.40408
0.0475164
-0.287351
-0.0715957
0.329861
0.240101
-0.203315
-0.264849
0.162808
0.368186
-0.00707659
-0.349469
-0.0830162
0.372219
0.26623
-0.244762
-0.332428
0.16162
0.457296
0.0732455
-0.385587
-0.184412
0.368929
0.397283
-0.153446
-0.416501
0.0260239
0.477524
0.22426
-0.318624
-0.270102
0.297507
0.478774
-0.011767
-0.400692
-0.0846555
0.454103
0.410695
-0.122622
-0.318188
0.100429
0.439568
0.167922
-0.22837
-0.0667819
0.42099
0.467686
-0.0246789
-0.322694
0.00877671
0.440035
0.33181
-0.0456082
-0.00217172
0.394773
0.451541
0.0128251
-0.282753
-0.00970264
0.398065
0.422905
0.271451
0.299252
0.493409
0.552167
0.343531
0.162878
0.295279
0.528676
0.459589
0.171294
0.126252
0.407202
0.548893
0.290445
0.0348375
0.203341
0.533652
0.478737
0.108625
0.0159314
0.359168
0.58782
0.31875
-0.0286895
0.102599
0.510961
0.544295
0.143164
-0.0581226
0.260044
0.589739
0.402315
0.00294062
0.0403222
0.462507
0.606763
0.25802
-0.0323621
0.172858
0.536461
0.497512
0.147276
0.0704625
0.404446
0.612233
0.340345
-0.0162404
0.0648338
0.436364
0.546478
0.302528
0.162282
0.36564
0.559956
0.367322
0.0225204
0.052871
0.424398
0.582643
0.341875
0.132619
0.287096
0.531816
0.396402
0.620211
0.587205
0.395213
0.356994
0.507712
0.599088
0.520805
0.435414
0.47749
0.560584
0.553273
0.490496
0.484115
0.531134
0.547131
0.51566
0.500903
0.523676
0.538863
0.523657
0.51191
0.524235
0.531927
0.520106
0.51239
0.524744
0.534421
0.52385
0.512813
0.522511
0.535961
0.525635
0.506537
0.506962
0.517254
0.517304
0.517009
0.524109
0.519948
0.500124
0.490161
0.505412
0.524651
0.519285
0.495974
0.481328
0.477865
0.470895
0.462366
0.478877
0.533671
0.567736
0.519868
0.447657
0.423094
0.427645
0.445699
0.478316
0.508445
0.534956
0.544694
0.524463
0.508208
0.0398871
0.5127
0.395903
-0.110302
-0.196897
0.271934
0.563435
0.248348
-0.134857
0.0373003
0.486216
0.499813
0.0790775
-0.0799225
0.282315
0.586479
0.354509
-0.0260301
0.0625365
0.479771
0.562994
0.18915
-0.0358942
0.249285
0.593839
0.453677
0.0542245
0.0296965
0.418839
0.60644
0.298257
-0.0139887
0.165542
0.553411
0.53155
0.12217
-0.0381706
0.303691
0.612243
0.404659
0.0173625
0.0674981
0.465091
0.558713
0.181593
-0.0747575
0.202338
0.595142
0.512024
0.101106
0.00672678
0.355954
0.553258
0.2511
-0.0567553
0.149626
0.563495
0.563357
0.174901
0.00613218
0.304083
0.56587
0.359771
0.0376523
0.00755538
0.471161
0.329534
-0.22235
-0.316898
0.197802
0.498193
0.0893978
-0.38793
-0.17412
0.387425
0.390291
-0.175895
-0.401863
0.0768329
0.491692
0.173686
-0.366024
-0.259482
0.324515
0.450984
-0.0819427
-0.419808
-0.0208814
0.481062
0.286571
-0.294875
-0.338721
0.224523
0.499458
0.0492809
-0.40962
-0.146559
0.426925
0.407766
-0.173449
-0.400838
0.0818415
0.508105
0.204649
-0.336042
-0.243757
0.335472
0.473703
-0.0560977
-0.419744
-0.0419375
0.492536
0.358875
-0.217911
-0.322406
0.196305
0.483307
0.0663788
-0.370066
-0.101839
0.465605
0.44793
-0.126978
-0.361915
0.0971359
0.494276
0.181518
-0.334252
0.383472
0.598066
0.531793
0.255219
0.200811
0.465314
0.61632
0.368586
0.080731
0.209798
0.55591
0.548566
0.171018
0.0144517
0.331719
0.611252
0.388828
0.00802765
0.0767744
0.486864
0.576744
0.193419
-0.0554696
0.227369
0.590732
0.452004
0.0295252
-0.00470483
0.404188
0.604813
0.27665
-0.0598191
0.128534
0.545097
0.536569
0.124227
-0.035278
0.309798
0.607771
0.381014
-0.00941055
0.0615664
0.484511
0.593874
0.226253
-0.0336118
0.217921
0.574221
0.461061
0.0505813
0.00049753
0.400481
0.618964
0.317067
-0.0163228
0.144475
0.53208
0.51318
0.0981615
-0.0550075
0.310511
0.618191
0.370267
-0.0513598
0.501693
0.347958
0.409174
0.578964
0.596308
0.464066
0.408052
0.498804
0.577828
0.540424
0.47445
0.48375
0.53509
0.545329
0.515972
0.503238
0.517828
0.527882
0.522576
0.519998
0.523864
0.521154
0.514354
0.518389
0.529275
0.527176
0.513656
0.511564
0.526008
0.53353
0.521688
0.50964
0.514042
0.524172
0.524037
0.517179
0.516482
0.523435
0.525938
0.516857
0.507632
0.509729
0.515478
0.517563
0.522136
0.526113
0.520095
0.510128
0.502439
0.497532
0.503824
0.518466
0.524639
0.520458
0.512078
0.504686
0.506951
0.507441
0.491747
0.487767
0.520318
0.550678
0.525978
0.470542
0.235749
-0.222582
-0.0757442
0.440677
0.506822
0.0402777
-0.189139
0.191791
0.580654
0.379726
-0.0628932
-0.0306181
0.424006
0.584854
0.216874
-0.0761261
0.175601
0.571098
0.488631
0.0722895
-0.00842282
0.375103
0.614745
0.335513
-0.0132251
0.123699
0.528679
0.560025
0.169539
-0.023049
0.288238
0.611782
0.434234
0.0336932
0.0424303
0.445241
0.601573
0.26297
-0.0313301
0.18786
0.573845
0.5122
0.0943026
-0.0219968
0.347147
0.614673
0.357595
-0.00542699
0.110418
0.519795
0.568354
0.173517
-0.0427888
0.261571
0.601634
0.442403
0.0575075
0.0765157
0.469389
0.607232
0.273924
0.00664442
0.230461
0.582635
0.192247
-0.320565
-0.178049
0.381535
0.44273
-0.108792
-0.393068
0.0463868
0.503472
0.238312
-0.332213
-0.298869
0.284704
0.485146
-0.0195384
-0.423615
-0.081865
0.460964
0.339018
-0.252628
-0.370404
0.17371
0.514426
0.110711
-0.394285
-0.197768
0.388254
0.433591
-0.13371
-0.414515
0.0362964
0.506118
0.252381
-0.321784
-0.305931
0.274231
0.496812
0.00784088
-0.415685
-0.0994442
0.458194
0.375139
-0.217705
-0.382419
0.139142
0.513892
0.145746
-0.371058
-0.204383
0.383147
0.453178
-0.111646
-0.417371
0.0214212
0.507674
0.272188
-0.297496
-0.280762
0.295549
0.500025
-0.00470055
-0.414404
-0.0727329
0.471608
0.462129
0.205532
0.273122
0.562688
0.591243
0.277184
0.104727
0.35255
0.619596
0.450803
0.0875577
0.103187
0.475932
0.600269
0.255089
-0.0229906
0.209211
0.5815
0.491056
0.0709374
-0.0139109
0.372212
0.613296
0.320993
-0.043619
0.0979533
0.521068
0.55355
0.143138
-0.0601324
0.265304
0.60418
0.421107
0.00826754
0.0215641
0.440553
0.600745
0.248194
-0.0580006
0.167096
0.566915
0.509336
0.0877016
-0.0272685
0.347372
0.613968
0.345599
-0.0316246
0.0828586
0.50562
0.561286
0.161286
-0.0545617
0.260491
0.604957
0.422663
-0.00679208
-0.00159636
0.429447
0.586942
0.203045
-0.115236
0.144128
0.563524
0.44138
0.598515
0.556094
0.419725
0.419288
0.540434
0.587576
0.509142
0.448629
0.492351
0.555844
0.547361
0.501708
0.494669
0.522612
0.535081
0.523016
0.514824
0.518737
0.520489
0.518369
0.521987
0.526874
0.52125
0.511903
0.515244
0.527522
0.528971
0.517123
0.511116
0.520082
0.52892
0.523233
0.512115
0.513083
0.524428
0.528525
0.519913
0.512297
0.515693
0.522608
0.521474
0.5144
0.514048
0.523392
0.528882
0.519981
0.506391
0.506558
0.52032
0.527434
0.519964
0.512539
0.516651
0.523746
0.512483
0.485053
0.484852
0.527291
0.551127
0.511353
0.467216
0.496597
0.55997
0.0749127
0.535339
0.382706
-0.111125
-0.136238
0.350201
0.578582
0.208666
-0.143431
0.0910503
0.537858
0.498228
0.0590528
-0.0661782
0.322251
0.610372
0.354208
-0.0254593
0.0779736
0.5
0.575732
0.193048
-0.0365716
0.251013
0.60086
0.461582
0.0561502
0.0271444
0.420687
0.614251
0.301337
-0.0230561
0.154366
0.552253
0.539682
0.135867
-0.0194472
0.320569
0.617529
0.400127
0.0125198
0.0695925
0.480484
0.592303
0.228078
-0.0318238
0.225653
0.589284
0.481941
0.0802227
0.0296808
0.413527
0.617053
0.311436
-0.0134697
0.162655
0.555318
0.544768
0.168618
0.0438778
0.373139
0.629412
0.412561
0.089698
0.0209312
0.504159
0.308095
-0.272742
-0.315278
0.244522
0.503774
0.0401038
-0.40644
-0.121907
0.435996
0.370486
-0.217211
-0.389806