# vtk DataFile Version 3.0
PFC-RG simulation results
ASCII
DATASET STRUCTURED_POINTS
DIMENSIONS 64 64 1
ORIGIN 0 0 0
SPACING 1 1 1
POINT_DATA 4096
SCALARS psi double
LOOKUP_TABLE default
0.345276
0.317164
0.255014
0.25606
0.321995
0.355779
0.319839
0.292191
0.333555
0.389245
0.384276
0.344488
0.346977
0.392456
0.413148
0.386546
0.360838
0.373069
0.398368
0.399127
0.380241
0.372366
0.383955
0.395774
0.395517
0.390553
0.388632
0.384495
0.376545
0.379413
0.396779
0.40232
0.385697
0.380947
0.39609
0.377172
0.310049
0.281691
0.350139
0.430586
0.420232
0.347448
0.283519
0.227131
0.182849
0.208101
0.301947
0.387303
0.421187
0.398962
0.306308
0.17973
0.121476
0.172828
0.267234
0.33759
0.366827
0.342291
0.27546
0.232099
0.242412
0.256547
0.253282
0.277853
0.318568
0.302906
0.276878
0.302907
0.333091
0.293311
0.232556
0.252797
0.323239
0.315189
0.223836
0.192041
0.273844
0.335625
0.279424
0.20633
0.236288
0.30811
0.295867
0.225106
0.214409
0.270342
0.297395
0.272066
0.263677
0.294263
0.309388
0.289018
0.28379
0.323702
0.360524
0.33701
0.277996
0.25562
0.27562
0.281609
0.274854
0.317183
0.387213
0.374729
0.275375
0.219754
0.247143
0.26183
0.250938
0.288435
0.329375
0.283066
0.226532
0.269691
0.334245
0.306726
0.241011
0.227013
0.242946
0.255592
0.29149
0.34239
0.354882
0.327726
0.290473
0.242335
0.209721
0.247257
0.25501
0.241951
0.273176
0.32447
0.303188
0.201298
0.15334
0.23655
0.31372
0.227986
0.077091
0.0893487
0.251684
0.301288
0.145649
0.0277729
0.135127
0.295326
0.26009
0.102499
0.0754636
0.199942
0.266752
0.190442
0.113104
0.146374
0.217718
0.221389
0.18047
0.184028
0.23332
0.244056
0.193776
0.163679
0.201946
0.25492
0.278477
0.291253
0.272028
0.173197
0.0826119
0.149114
0.316772
0.403512
0.411711
0.431619
0.361814
0.124149
-0.0392882
0.0967516
0.351249
0.450199
0.423292
0.395562
0.32616
0.193743
0.134815
0.219453
0.331327
0.366583
0.344306
0.303841
0.268393
0.264254
0.229129
0.223257
0.287552
0.33469
0.294493
0.223962
0.244113
0.353503
0.402566
0.311209
0.212391
0.270008
0.41877
0.437223
0.287495
0.19383
0.301602
0.450142
0.422376
0.276261
0.235323
0.340334
0.415062
0.346966
0.23488
0.223203
0.302455
0.341883
0.281788
0.211615
0.223049
0.276059
0.293537
0.292268
0.313368
0.325261
0.300336
0.270045
0.22928
0.154271
0.141601
0.27895
0.409576
0.359687
0.281718
0.358463
0.398599
0.212958
0.0592216
0.192009
0.377607
0.350019
0.278838
0.353527
0.399855
0.267786
0.140477
0.181654
0.268143
0.272091
0.268006
0.3228
0.364701
0.329104
0.253009
0.295604
0.34195
0.3204
0.282023
0.314054
0.393275
0.419221
0.38002
0.370363
0.425782
0.465648
0.442109
0.416433
0.441915
0.474941
0.45911
0.426954
0.436896
0.466495
0.452895
0.411504
0.413016
0.442756
0.420036
0.359849
0.359639
0.411571
0.403279
0.323277
0.283019
0.32764
0.389311
0.408512
0.370269
0.283704
0.220136
0.254183
0.32355
0.333704
0.360355
0.45772
0.411827
0.1083
-0.0943247
0.112991
0.428054
0.468135
0.403068
0.467348
0.419388
0.100134
-0.0976965
0.111144
0.396192
0.416153
0.326013
0.332377
0.312437
0.176331
0.117787
0.247742
0.37957
0.352367
0.262993
0.377284
0.363573
0.232116
0.196875
0.325896
0.397387
0.249436
0.091836
0.20137
0.428919
0.388095
0.105975
0.0295586
0.303983
0.507396
0.31607
0.0319256
0.0973522
0.389984
0.441891
0.199454
0.07295
0.238469
0.397473
0.324114
0.196279
0.223931
0.325782
0.343108
0.290976
0.268876
0.303232
0.336208
0.287657
0.168457
0.135303
0.278504
0.419123
0.385366
0.337266
0.424162
0.392483
0.0682315
-0.146498
0.10051
0.449809
0.470126
0.385854
0.479253
0.45389
0.100058
-0.136552
0.0841793
0.392699
0.413238
0.346045
0.412595
0.415773
0.227524
0.106058
0.211186
0.323041
0.278795
0.24303
0.384751
0.315388
0.13487
0.138186
0.325055
0.357882
0.0955479
-0.107216
0.0895407
0.407162
0.307899
-0.120181
-0.224064
0.182329
0.47534
0.192117
-0.22316
-0.123225
0.319432
0.41603
0.0617843
-0.153206
0.0755555
0.352817
0.2942
0.0746132
0.0403364
0.20029
0.326804
0.296896
0.188392
0.154313
0.231107
0.279666
0.219609
0.213006
0.361779
0.41254
0.180835
-9.34791e-06
0.187501
0.433227
0.369081
0.260023
0.408016
0.469226
0.150253
-0.0917856
0.152609
0.470541
0.411841
0.270088
0.376778
0.436122
0.207994
0.0479106
0.220029
0.413833
0.363107
0.272614
0.312182
0.30714
0.18768
0.260954
0.348945
0.268563
0.1639
0.245375
0.423365
0.432364
0.237602
0.124547
0.300223
0.539107
0.466865
0.158546
0.0840376
0.377489
0.589627
0.385057
0.0851191
0.160048
0.48377
0.554094
0.291865
0.120059
0.265048
0.462531
0.433178
0.255341
0.163432
0.239349
0.367719
0.371248
0.223666
0.132662
0.251808
0.40346
0.372956
0.303984
0.378572
0.359645
0.0430014
-0.177302
0.0854257
0.477772
0.533397
0.468229
0.569166
0.487149
-0.0120679
-0.343107
-0.0185368
0.482843
0.5724
0.470482
0.52383
0.469578
0.105021
-0.144469
0.0408997
0.331952
0.393755
0.369307
0.404776
0.352992
0.19987
0.325776
0.316223
0.261985
0.285208
0.389472
0.432179
0.402274
0.414405
0.471157
0.48562
0.464663
0.474517
0.508702
0.515862
0.493248
0.480666
0.495575
0.515601
0.512075
0.486713
0.475506
0.498776
0.511407
0.46265
0.409147
0.436457
0.472937
0.396614
0.297892
0.339045
0.414123
0.329027
0.216506
0.310319
0.449612
0.34814
0.175732
0.24535
0.366769
0.238275
0.119866
0.31335
0.470561
0.253787
0.0693584
0.296844
0.501697
0.269926
0.0436398
0.263136
0.499985
0.30361
0.0711824
0.242328
0.462884
0.325715
0.125064
0.203853
0.336427
0.277982
0.215327
0.301978
0.363249
0.308473
0.332331
0.266311
0.257838
0.353668
0.369294
0.184559
0.0865214
0.309463
0.518509
0.320454
-0.0101217
0.0678923
0.458656
0.553353
0.199049
-0.0504452
0.19545
0.553192
0.467188
0.0740675
-0.016354
0.327127
0.560132
0.323436
0.00746316
0.10777
0.42117
0.42921
0.185177
0.147312
0.334165
0.378404
0.26499
0.274868
0.335292
0.178887
-0.0058937
0.140061
0.427938
0.481813
0.452942
0.558217
0.457199
-0.0490643
-0.361164
-0.00434798
0.509623
0.581154
0.480377
0.578377
0.511486
0.00244512
-0.358589
-0.0521351
0.460731
0.569754
0.447548
0.454059
0.432543
0.20005
0.0168828
0.112297
0.308241
0.388156
0.233109
0.214118
0.277194
0.382062
0.303107
-0.00936408
-0.131029
0.195776
0.471926
0.174055
-0.302352
-0.206689
0.332185
0.465928
-0.0275602
-0.377949
-0.0346208
0.466551
0.346417
-0.200518
-0.320142
0.165378
0.49866
0.18813
-0.239285
-0.111923
0.326843
0.391914
0.0981231
0.0210563
0.254142
0.364842
0.250232
0.207469
0.253113
0.167886
0.0869315
0.258899
0.443784
0.343897
0.246016
0.425023
0.483103
0.119521
-0.142154
0.147129
0.508243
0.42631
0.263272
0.426645
0.509598
0.14751
-0.144162
0.119677
0.489072
0.428558
0.236408
0.336388
0.474295
0.310552
0.0788224
0.109968
0.292205
0.370079
0.136573
0.236104
0.359515
0.428915
0.365197
0.17029
0.114422
0.365167
0.577494
0.378353
0.0401662
0.101418
0.481584
0.579859
0.233985
-0.0134349
0.227144
0.578958
0.494593
0.111158
0.0276779
0.368412
0.601826
0.381304
0.0718916
0.145748
0.439873
0.472123
0.246932
0.169693
0.300078
0.332425
0.230181
0.236011
0.33316
0.332283
0.336693
0.46307
0.402336
-0.0096218
-0.247483
0.088302
0.515406
0.515594
0.400711
0.528332
0.503494
0.033527
-0.289361
0.0364227
0.504722
0.525003
0.397084
0.516436
0.5146
0.0775015
-0.257799
0.00192984
0.430936
0.466272
0.287711
0.286224
0.371238
0.311245
0.144145
0.330966
0.406676
0.349555
0.363451
0.447382
0.477918
0.464626
0.479307
0.510982
0.517537
0.50604
0.501584
0.507421
0.515658
0.518866
0.51234
0.50382
0.506992
0.517074
0.516052
0.504377
0.499273
0.502068
0.49849
0.484268
0.458391
0.417587
0.390748
0.396846
0.361175
0.245759
0.203087
0.33456
0.435115
0.344704
0.30039
0.446625
0.406373
-0.0154756
-0.265984
0.073435
0.511584
0.521246
0.41367
0.542012
0.506189
0.0199883
-0.31001
0.0239212
0.507568
0.53929
0.41462
0.527153
0.507702
0.0555819
-0.270516
0.00816476
0.415507
0.403297
0.250008
0.346009
0.447934
0.27905
0.213054
0.416077
0.333391
0.0699699
0.122894
0.451886
0.517002
0.185075
-0.0327781
0.216374
0.563651
0.474617
0.0789867
-0.0118726
0.350253
0.605364
0.352101
-0.0159692
0.0774322
0.483477
0.565439
0.203159
-0.0325828
0.208793
0.533989
0.460132
0.14043
0.055197
0.279583
0.448234
0.322476
0.109189
0.149814
0.395918
0.426847
0.122488
-0.0472022
0.215991
0.481777
0.370097
0.242644
0.4228
0.488077
0.122604
-0.135691
0.160925
0.51546
0.414891
0.243434
0.417629
0.51498
0.157718
-0.132145
0.132077
0.485998
0.408311
0.246144
0.394551
0.471511
0.163218
-0.0438332
0.205971
0.435803
0.265186
0.253583
0.465069
0.274315
-0.111056
-0.0524338
0.374759
0.441953
-0.0368685
-0.360396
-0.0253552
0.461335
0.339235
-0.219787
-0.352684
0.154666
0.514134
0.159907
-0.355303
-0.223363
0.346457
0.462581
-0.0425753
-0.369294
-0.0240314
0.444127
0.355192
-0.0792731
-0.18084
0.159149
0.428153
0.303695
0.0625967
0.117393
0.388182
0.392513
0.0163505
-0.195772
0.119533
0.521777
0.552669
0.483601
0.591302
0.483998
-0.0575349
-0.389749
-0.017538
0.519214
0.600304
0.50343
0.601827
0.517535
-0.0215841
-0.388159
-0.0508632
0.483264
0.585263
0.494459
0.573133
0.506103
0.087461
-0.139481
0.143885
0.395583
0.241401
0.249742
0.482581
0.352407
0.0576733
0.122924
0.470443
0.53705
0.20028
-0.0213535
0.223607
0.569484
0.483846
0.0912089
-0.00182942
0.355775
0.609537
0.359831
-0.00350875
0.0902387
0.491809
0.571693
0.215775
-0.0119533
0.228891
0.551493
0.486689
0.175851
0.0762467
0.282483
0.473808
0.398042
0.184122
0.14842
0.336204
0.416467
0.221864
0.106173
0.32042
0.469124
0.240042
0.0656852
0.304464
0.503318
0.265718
0.0535601
0.290106
0.513343
0.283322
0.0572452
0.28402
0.512396
0.287902
0.0538319
0.268322
0.503807
0.30599
0.0768432
0.249817
0.454106
0.305977
0.159267
0.314144
0.407969
0.226186
0.232621
0.413085
0.42234
0.343271
0.375658
0.469112
0.494227
0.478681
0.490998
0.51224
0.511881
0.506579
0.511198
0.515618
0.514725
0.51408
0.514375
0.514355
0.515283
0.513762
0.50874
0.510634
0.518201
0.509257
0.48858
0.493434
0.505337
0.45708
0.386695
0.403158
0.442949
0.348456
0.215772
0.270202
0.421338
0.436256
0.423961
0.521459
0.408466
-0.0771568
-0.355646
0.0122677
0.519151
0.590922
0.50227
0.601981
0.507672
-0.0377566
-0.395314
-0.0386994
0.507187
0.602508
0.502473
0.590434
0.520541
0.0164056
-0.354779
-0.0858144
0.39559
0.516243
0.432543
0.453123
0.427621
0.258855
0.221346
0.251444
0.337532
0.431563
0.381023
0.159494
0.0864477
0.353612
0.580699
0.369048
0.014838
0.0829624
0.480329
0.579864
0.219421
-0.0356296
0.215211
0.578887
0.487461
0.0841652
-0.00364444
0.3581
0.603231
0.350471
0.00104515
0.100153
0.467916
0.513503
0.218059
0.112025
0.318768
0.413861
0.27437
0.232264
0.344989
0.349589
0.303241
0.413568
0.425531
0.101241
-0.111407
0.177154
0.510109
0.412453
0.2539
0.426777
0.510069
0.142652
-0.142024
0.140491
0.510077
0.429202
0.25289
0.407752
0.510744
0.18239
-0.118303
0.084955
0.431969
0.433633
0.27841
0.300968
0.38107
0.339609
0.22232
0.141238
0.236245
0.403872
0.318714
-0.0516785
-0.190584
0.179218
0.491248
0.18088
-0.322295
-0.22451
0.335079
0.471681
-0.0404021
-0.401384
-0.0452474
0.470485
0.340859
-0.229221
-0.350909
0.160754
0.504462
0.151589
-0.329505
-0.183937
0.338927
0.43402
0.0631765
-0.0755999
0.210801
0.401897
0.301909
0.250972
0.29004
0.141867
-0.0288443
0.15894
0.478551
0.498116
0.419366
0.534862
0.484603
0.0104771
-0.300471
0.0385512
0.515486
0.540763
0.418428
0.538957
0.517204
0.0431363
-0.30173
0.00350004
0.485831
0.54377
0.412785
0.484465
0.508239
0.211503
-0.0578766
0.0522039
0.321591
0.415653
0.228988
0.194093
0.275285
0.415816
0.397077
0.164447
0.0710775
0.339294
0.575036
0.361518
0.00314332
0.0751001
0.47793
0.575263
0.208105
-0.0492357
0.205799
0.574028
0.482061
0.0749452
-0.0145516
0.349031
0.595011
0.33946
-0.013444
0.0826362
0.444491
0.485267
0.196345
0.09811
0.291847
0.37124
0.268564
0.290697
0.36029
0.170179
-0.0477352
0.135462
0.476055
0.504544
0.414282
0.520114
0.475616
0.0133832
-0.291422
0.0454262
0.514916
0.532122
0.406208
0.530336
0.51707
0.0512613
-0.290904
0.00775767
0.477742
0.529389
0.403992
0.480059
0.493436
0.186244
-0.0700479
0.0656771
0.337756
0.409957
0.226701
0.326925
0.349219
0.342148
0.396205
0.452386
0.459099
0.470379
0.505645
0.515731
0.498111
0.496986
0.515779
0.521708
0.50956
0.502407
0.509587
0.519334
0.519347
0.50796
0.498046
0.506678
0.521521
0.507037
0.472791
0.469403
0.475386
0.416189
0.343875
0.374324
0.411656
0.284835
0.157505
0.283998
0.458846
0.367739
0.229435
0.349213
0.423405
0.129474
-0.10383
0.160739
0.497377
0.414748
0.262436
0.431824
0.508171
0.134074
-0.154012
0.130906
0.507775
0.435712
0.263384
0.409173
0.495103
0.164801
-0.115665
0.0947128
0.406863
0.370622
0.229411
0.297933
0.384001
0.297294
0.231242
0.412833
0.336135
0.12768
0.176983
0.448771
0.507639
0.232513
0.0464244
0.263755
0.571109
0.483923
0.113097
0.0272607
0.369179
0.609403
0.367054
0.0187232
0.11136
0.496149
0.567689
0.224708
0.0103593
0.239128
0.536824
0.468486
0.171015
0.0633103
0.243584
0.439434
0.390068
0.152575
0.0548478
0.247207
0.432143
0.370205
0.316591
0.456767
0.411555
-0.0402262
-0.330442
0.0155567
0.515599
0.585572
0.490765
0.588195
0.503249
-0.028144
-0.380329
-0.0315899
0.500923
0.589621
0.491953
0.580875
0.510029
0.0204613
-0.322775
-0.0512649
0.388924
0.464201
0.367006
0.39728
0.375324
0.183
0.253465
0.431947
0.319842
0.0236542
0.0341796
0.358439
0.422737
0.0200262
-0.268253
0.0287692
0.467483
0.340184
-0.194748
-0.318048
0.17095
0.511534
0.162976
-0.335264
-0.204473
0.345778
0.453104
-0.0361803
-0.350705
-0.0258545
0.41347
0.336901
-0.0506191
-0.140963
0.15139
0.394356
0.318165
0.110692
0.0969631
0.283672
0.338951
0.151316
0.0851555
0.326499
0.464402
0.226576
0.0519752
0.291066
0.494446
0.261135
0.0447494
0.275308
0.504808
0.290912
0.0729064
0.290718
0.50465
0.276878
0.0495951
0.265478
0.496253
0.302839
0.0822241
0.250905
0.454214
0.319864
0.156504
0.262385
0.350599
0.199839
0.239082
0.39081
0.365217
0.161449
0.152153
0.395958
0.473116
0.199455
-0.00538778
0.21638
0.542979
0.457221
0.0770192
-0.00708052
0.345223
0.587893
0.336155
-0.0222593
0.0705715
0.465216
0.542928
0.190494
-0.0410316
0.18154
0.482725
0.420497
0.155777
0.107311
0.293014
0.404347
0.314918
0.204638
0.260041
0.39887
0.341676
0.058828
-0.0590927
0.203154
0.484159
0.47072
0.424905
0.552352
0.460467
-0.053395
-0.368674
-0.00823225
0.508106
0.581648
0.485859
0.585925
0.510533
-0.00886251
-0.363627
-0.0405738
0.468239
0.554635
0.442191
0.49587
0.467977
0.149348
-0.0560452
0.145656
0.382713
0.31009
0.174045
0.298874
0.385558
0.33232
0.296177
0.371466
0.446915
0.436528
0.414165
0.451926
0.502881
0.50588
0.481906
0.480448
0.505189
0.520618
0.505408
0.482369
0.486085
0.509391
0.512369
0.486728
0.469598
0.477102
0.472927
0.440083
0.419333
0.424788
0.410107
0.356329
0.3032
0.292673
0.345609
0.425652
0.395164
0.212344
0.118195
0.27104
0.406415
0.310577
0.254669
0.431509
0.462386
0.110405
-0.116779
0.175391
0.505936
0.395927
0.225795
0.400003
0.505406
0.16703
-0.12022
0.119756
0.464494
0.410285
0.236161
0.315631
0.389065
0.190557
0.0380042
0.214923
0.430766
0.365385
0.160702
0.236104
0.34134
0.369494
0.29729
0.195102
0.208231
0.378778
0.494203
0.348438
0.12747
0.195093
0.488473
0.551364
0.259775
0.0600317
0.271713
0.567406
0.484676
0.15404
0.0847955
0.367736
0.558228
0.383568
0.130524
0.158716
0.371127
0.428177
0.281926
0.181807
0.234559
0.290544
0.268161
0.273347
0.33179
0.342257
0.341424
0.396204
0.324618
0.0354036
-0.109119
0.159174
0.474096
0.458159
0.383655
0.523239
0.494658
0.0395939
-0.272527
0.037379
0.489848
0.515006
0.3793
0.465609
0.478959
0.14134
-0.131314
0.0443211
0.344698
0.36812
0.269512
0.315477
0.39557
0.325065
0.249531
0.255657
0.292657
0.341638
0.294751
0.128964
0.0637168
0.248445
0.406535
0.205681
-0.118482
-0.0466197
0.346179
0.426543
0.0195326
-0.259095
0.0328395
0.441556
0.325955
-0.131307
-0.225499
0.162508
0.417351
0.184378
-0.118809
-0.027719
0.267449
0.31807
0.141103
0.0944882
0.239893
0.303718
0.194938
0.130413
0.213793
0.299354
0.338476
0.398304
0.34986
0.0898095
-0.0741879
0.139638
0.434984
0.443933
0.378766
0.497783
0.471863
0.0575587
-0.232222
0.0498024
0.471478
0.507607
0.389968
0.457606
0.454539
0.154118
-0.0692931
0.107852
0.395155
0.43367
0.319769
0.273968
0.284747
0.272958
0.339121
0.29379
0.257547
0.311845
0.35995
0.276556
0.188299
0.284562
0.424363
0.328177
0.106654
0.13621
0.403472
0.472385
0.201163
0.00665148
0.201811
0.480802
0.402793
0.0934489
0.0328263
0.290401
0.441402
0.26957
0.0883692
0.186822
0.374113
0.349595
0.204707
0.218384
0.362554
0.38388
0.257094
0.196762
0.253124
0.261704
0.223284
0.300866
0.415425
0.364856
0.272684
0.344259
0.38008
0.155557
-0.0231596
0.174688
0.440419
0.385679
0.260211
0.378201
0.447155
0.196048
-0.0107647
0.155919
0.391028
0.366341
0.275459
0.343021
0.407648
0.315798
0.203146
0.192316
0.229548
0.273687
0.338538
0.296497
0.229072
0.259467
0.367423
0.398151
0.333159
0.318659
0.39882
0.450174
0.414683
0.387464
0.430477
0.474563
0.456523
0.421665
0.433788
0.469241
0.467295
0.43583
0.432042
0.45618
0.446457
0.396769
0.384695
0.429756
0.436307
0.355853
0.292745
0.340158
0.410075
0.3791
0.309036
0.334006
0.395727
0.326987
0.18958
0.213053
0.370911
0.432398
0.405836
0.432908
0.379523
0.0968014
-0.117666
0.0675908
0.408963
0.510338
0.473694
0.507763
0.411122
0.0676267
-0.136246
0.0666049
0.36667
0.438561
0.387683
0.367257
0.302421
0.184425
0.160117
0.238459
0.28747
0.295754
0.288773
0.301727
0.245439
0.219002
0.287961
0.359054
0.325464
0.235346
0.226785
0.331446
0.416508
0.357401
0.231731
0.235779
0.386607
0.464618
0.343013
0.201832
0.256064
0.417803
0.439712
0.299457
0.208054
0.271762
0.363118
0.343674
0.249132
0.200344
0.236215
0.290791
0.285215
0.226244
0.211135
0.297356
0.389667
0.350937
0.22565
0.189203
0.24509
0.24387
0.213063
0.290007
0.379378
0.309378
0.212143
0.28684
0.379055
0.287881
0.19728
0.297116
0.375964
0.26097
0.177234
0.28818
0.384629
0.311782
0.223436
0.227667
0.226551
0.202488
0.257317
0.350813
0.347247
0.27624
0.270742
0.331542
0.307429
0.243351
0.238237
0.290917
0.298114
0.213425
0.142071
0.19753
0.299768
0.265222
0.112758
0.0755831
0.225667
0.322676
0.193625
0.0307127
0.0851974
0.25581
0.263025
0.107011
0.0417154
0.148913
0.24034
0.191469
0.113842
0.134766
0.210325
0.237268
0.201593
0.155882
0.145765
0.188352
0.258526
0.296884
0.282541
0.258682
0.227951
0.14778
0.0857236
0.159698
0.309847
0.389903
0.419597
0.451631
0.357309
0.0977279
-0.0441543
0.121535
0.362777
0.432723
0.414437
0.417244
0.350532
0.197827
0.131772
0.210589
0.29214
0.310933
0.336226
0.362873
0.315999
0.232198
0.287519
0.334561
0.337971
0.292342
0.257042
0.283847
0.332781
0.31872
0.253184
0.243251
0.31032
0.336538
0.265187
0.21192
0.267184
0.331331
0.286874
0.205723
0.220961
0.293941
0.290249
0.219832
0.210093
0.276851
0.309719
0.274261
0.258545
0.303165
0.339239
0.325108
0.306124
0.308688
0.295271
0.25709
0.248845
0.299158
0.36117
0.380847
0.346551
0.278857
0.233781
0.247183
0.264918
0.24748
0.274739
0.367571
0.362717
0.199339
0.0998688
0.214308
0.363883
0.363311
0.293967
0.276917
0.267592
0.227444
0.237751
0.319539
0.368511
0.337946
0.293466
0.275237
0.258474
0.238511
0.289579
0.285011
0.301976
0.304637
0.280704
0.279437
0.329245
0.371311
0.349575
0.31223
0.335491
0.394243
0.404949
0.363733
0.345
0.377404
0.409256
0.400568
0.377261
0.376142
0.390676
0.397042
0.393519
0.389218
0.383727
0.378065
0.383246
0.396591
0.395078
0.37569
0.372196
0.402045
0.425341
0.398091
0.342056
0.322594
0.356949
0.392193
0.385303
0.361689
0.372993
0.393993
0.32707
0.177577
0.117242
0.234943
0.373643
0.384854
0.346113
0.356579
0.341836
0.230688
0.127039
0.150203
0.252649
0.324665
0.348801
0.349826
0.320709
0.266229
0.226188
0.229738
0.266718
0.299099
0.27039
0.243107
0.264331
0.296616
0.287779
0.257834
0.264418
0.301191
0.30888
0.279187
0.26863
0.3007
0.326301
0.3078
0.282608
0.298982
0.33249
0.326434
0.290646
0.2868
0.319245
0.323608
0.281031
0.2543
0.272581
0.275682
0.232638
0.211076
0.250192
0.272341
0.224154
0.195959
0.272361
0.365879
0.339667
0.231732
0.193002
0.24442
0.27064
0.237594
0.247968
0.337647
0.377799
0.283134
0.179882
0.215795
0.332261
0.384722
0.357276
0.320909
0.289009
0.236556
0.198701
0.233778
0.314102
0.355401
0.328288
0.271184
0.232529
0.230932
0.251168
0.277653
0.310638
0.332873
0.268329
0.261267
0.27544
0.300462
0.300873
0.270011
0.243243
0.245833
0.260101
0.257676
0.238746
0.223141
0.220323
0.226014
0.235276
0.238917
0.221295
0.187964
0.177476
0.206301
0.222595
0.176817
0.121962
0.149153
0.220555
0.200358
0.0919756
0.0720885
0.196567
0.263888
0.137085
0.00550265
0.0976994
0.300326
0.325726
0.165826
0.0826734
0.17433
0.249816
0.176394
0.0931276
0.167093
0.326991
0.386329
0.318639
0.25127
0.251838
0.266117
0.242879
0.218949
0.249799
0.315674
0.356873
0.354723
0.327193
0.291553
0.256351
0.231866
0.238949
0.281238
0.320344
0.322888
0.306084
0.297309
0.292236
0.302386
0.295494
0.29471
0.305388
0.306154
0.286667
0.271449
0.285668
0.310903
0.30585
0.270277
0.252921
0.281346
0.315546
0.300473
0.24783
0.22663
0.266445
0.308607
0.285136
0.222932
0.219359
0.305084
0.379546
0.338056
0.240152
0.250719
0.386795
0.452183
0.329601
0.189537
0.241272
0.406532
0.441062
0.314262
0.237706
0.320774
0.415852
0.361395
0.219842
0.175362
0.278848
0.392527
0.382721
0.282907
0.220209
0.234049
0.25267
0.241987
0.256536
0.319145
0.36535
0.33685
0.263299
0.22403
0.246394
0.286293
0.309371
0.322024
0.323401
0.298811
0.261986
0.250433
0.308146
0.307869
0.283576
0.267741
0.284637
0.309926
0.308479
0.293963
0.305467
0.335734
0.338758
0.312037
0.309127
0.34844
0.371319
0.33531
0.296257
0.327878
0.394061
0.395788
0.33606
0.321864
0.384639
0.430481
0.407632
0.38601
0.416908
0.448128
0.438742
0.431228
0.459363
0.479681
0.448054
0.408244
0.423141
0.462336
0.449776
0.402529
0.409537
0.461528
0.443355
0.334903
0.270839
0.321408
0.3716
0.322233
0.256425
0.282065
0.347082
0.344799
0.285811
0.253832
0.266629
0.267962
0.238894
0.235724
0.28687
0.335567
0.329657
0.292166
0.268423
0.262072
0.256284
0.258746
0.294935
0.28388
0.268137
0.260614
0.272163
0.286403
0.283469
0.275276
0.282374
0.29195
0.281523
0.269509
0.289036
0.318597
0.303512
0.256128
0.258989
0.32821
0.355454
0.274261
0.204446
0.274384
0.364754
0.273143
0.101653
0.144296
0.362806
0.384055
0.131365
0.0076024
0.246457
0.497656
0.368744
0.0678386
0.074298
0.362586
0.456647
0.214967
0.0428371
0.209672
0.437359
0.394082
0.206545
0.180097
0.302531
0.349837
0.288312
0.270233
0.337054
0.370807
0.305257
0.223861
0.222255
0.273906
0.300332
0.296829
0.302026
0.309235
0.288354
0.253211
0.246392
0.272898
0.296546
0.298751
0.273661
0.271479
0.279705
0.289513
0.289781
0.277398
0.26637
0.271309
0.279121
0.264558
0.239097
0.243321
0.275576
0.278857
0.231408
0.199636
0.243337
0.300757
0.253817
0.124633
0.0981675
0.243744
0.326985
0.133402
-0.106474
0.00412908
0.337072
0.33965
-0.0625957
-0.260369
0.0851765
0.454361
0.269092
-0.17222
-0.164796
0.272958
0.445337
0.10217
-0.1984
-0.00887173
0.354609
0.390007
0.162373
0.0805123
0.234072
0.357471
0.302979
0.210317
0.229733
0.309428
0.319772
0.264189
0.25074
0.305703
0.346473
0.32292
0.275941
0.256459
0.262249
0.270238
0.280731
0.30001
0.31361
0.306377
0.274203
0.279884
0.294904
0.309364
0.303104
0.281176
0.276223
0.297403
0.307291
0.282751
0.263854
0.289359
0.318521
0.292249
0.244401
0.257971
0.321888
0.332797
0.252245
0.179657
0.23211
0.376581
0.42801
0.285781
0.139885
0.250872
0.50627
0.509963
0.213654
0.06247
0.309112
0.576324
0.438029
0.109902
0.111642
0.437449
0.578051
0.335049
0.0961463
0.195547
0.440085
0.472491
0.294314
0.181743
0.258278
0.371972
0.351858
0.234571
0.185632
0.258029
0.334435
0.322016
0.276259
0.27896
0.308804
0.300836
0.260287
0.247174
0.278594
0.310868
0.311197
0.29374
0.283377
0.281208
0.292639
0.288488
0.287906
0.293226
0.288261
0.277042
0.285227
0.308831
0.309489
0.285673
0.289039
0.329378
0.337945
0.28949
0.270728
0.332911
0.379388
0.328234
0.273529
0.325317
0.41089
0.414361
0.384063
0.417181
0.475
0.478814
0.458048
0.474487
0.509427
0.513436
0.491804
0.48256
0.495899
0.509364
0.502965
0.483922
0.480526
0.504206
0.514947
0.473648
0.424687
0.429506
0.440187
0.379613
0.309012
0.331095
0.383678
0.340014
0.245466
0.241436
0.318633
0.344127
0.283942
0.233787
0.250871
0.284875
0.28554
0.277101
0.293073
0.312438
0.300946
0.270064
0.257949
0.272202
0.300179
0.287173
0.275745
0.273582
0.273047
0.274696
0.286354
0.294407
0.278492
0.26087
0.282183
0.316247
0.294117
0.239655
0.259322
0.340872
0.33015
0.213905
0.203443
0.356309
0.392762
0.171916
0.0305068
0.246868
0.497587
0.345431
-0.0019164
0.0142166
0.398544
0.567001
0.259979
-0.0406979
0.13895
0.522792
0.515097
0.129597
-0.0357306
0.267431
0.559668
0.399699
0.0693542
0.0845295
0.366977
0.444021
0.254145
0.164857
0.298616
0.394831
0.313128
0.222286
0.258114
0.325
0.305337
0.245348
0.244062
0.292863
0.317164
0.299243
0.279933
0.279416
0.279314
0.270843
0.271873
0.288932
0.286622
0.28439
0.280722
0.278452
0.279871
0.285722
0.290704
0.282569
0.263109
0.259883
0.284693
0.294986
0.254409
0.219575
0.267535
0.331072
0.264743
0.126343
0.158018
0.348161
0.329756
-0.00731076
-0.187752
0.121028
0.454848
0.226047
-0.27505
-0.272981
0.253112
0.490481
0.0603517
-0.368915
-0.122047
0.420594
0.417041
-0.120522
-0.353952
0.0673535
0.479341
0.270034
-0.179606
-0.154218
0.269603
0.441
0.205758
0.0341148
0.181035
0.371751
0.346136
0.220414
0.206118
0.29018
0.330945
0.296378
0.268832
0.289498
0.312567
0.29734
0.267009
0.261367
0.278861
0.292829
0.295325
0.295282
0.272723
0.286729
0.292175
0.289316
0.29017
0.295327
0.292819
0.280858
0.276711
0.291236
0.305104
0.291663
0.263378
0.267977
0.316317
0.338773
0.273731
0.199097
0.261202
0.413763
0.404944
0.183645
0.0848629
0.326246
0.5766
0.424663
0.0708069
0.0635679
0.429247
0.598696
0.297857
-0.0074598
0.161552
0.541845
0.541405
0.166394
0.00380567
0.298718
0.584047
0.429556
0.100116
0.100477
0.390842
0.513347
0.327102
0.146846
0.198429
0.341911
0.365966
0.277558
0.222745
0.26281
0.322659
0.323
0.282198
0.264696
0.281351
0.291179
0.279093
0.273617
0.289172
0.302795
0.295635
0.279448
0.277209
0.290755
0.291119
0.284366
0.287104
0.293034
0.285671
0.276603
0.29012
0.311629
0.303523
0.277386
0.28472
0.323511
0.333095
0.302639
0.294557
0.334366
0.373053
0.383975
0.399756
0.435439
0.462522
0.467492
0.475358
0.498903
0.516097
0.511826
0.500689
0.501491
0.512939
0.519726
0.513308
0.502855
0.503653
0.514841
0.51924
0.509546
0.499783
0.501595
0.500769
0.478294
0.449452
0.440766
0.430401
0.374493
0.298745
0.285268
0.334929
0.347752
0.289185
0.247956
0.278124
0.312618
0.29015
0.25385
0.261909
0.292619
0.299182
0.287574
0.286685
0.292414
0.285058
0.270363
0.290839
0.291646
0.281863
0.27411
0.282028
0.28952
0.278435
0.270894
0.291278
0.305371
0.273982
0.246316
0.288337
0.336805
0.284201
0.202225
0.258183
0.386343
0.337914
0.139708
0.134043
0.393842
0.508364
0.23179
-0.042561
0.133503
0.518484
0.521646
0.132239
-0.0429123
0.276682
0.598401
0.421389
0.0224383
0.0250076
0.422361
0.591797
0.275342
-0.0241239
0.153885
0.513909
0.500556
0.173978
0.0612095
0.292081
0.457077
0.324618
0.163313
0.223796
0.356482
0.341512
0.244511
0.234738
0.295583
0.309779
0.274051
0.265771
0.292733
0.302517
0.284867
0.274039
0.280817
0.285571
0.282468
0.293313
0.288911
0.279144
0.275512
0.28548
0.290822
0.27792
0.271982
0.291686
0.296704
0.256543
0.235774
0.292372
0.33154
0.241206
0.141801
0.23412
0.392119
0.279955
-0.0346237
-0.0621725
0.294531
0.451604
0.0545816
-0.35265
-0.130733
0.400207
0.408992
-0.13624
-0.389388
0.0520235
0.50282
0.257165
-0.301074
-0.297773
0.25891
0.495686
0.0503872
-0.370052
-0.114889
0.40549
0.405996
-0.0448418
-0.206018
0.140262
0.43891
0.319482
0.0965719
0.140591
0.324422
0.356927
0.257579
0.224919
0.286764
0.322741
0.296144
0.274305
0.285977
0.293717
0.280158
0.270952
0.279906
0.290779
0.293061
0.283215
0.28463
0.283983
0.285103
0.290683
0.29078
0.280327
0.277975
0.294086
0.29835
0.271476
0.261355
0.305401
0.331383
0.263973
0.199793
0.283615
0.413549
0.340907
0.121225
0.11832
0.404797
0.552106
0.292355
0.00544268
0.15456
0.527561
0.538418
0.156486
-0.0244956
0.283796
0.60151
0.428918
0.0342121
0.0354741
0.42923
0.597226
0.280073
-0.0225439
0.15443
0.523211
0.519703
0.178911
0.0286712
0.247814
0.457169
0.374997
0.197212
0.194003
0.309169
0.344037
0.283502
0.25027
0.280812
0.307031
0.293778
0.275683
0.279337
0.288627
0.286874
0.282437
0.284573
0.287149
0.285506
0.277476
0.281614
0.287037
0.29024
0.290251
0.288
0.284493
0.283881
0.28962
0.295674
0.294435
0.292309
0.299763
0.309342
0.307305
0.303629
0.320622
0.353192
0.374222
0.379977
0.395377
0.432019
0.473016
0.499053
0.506718
0.505146
0.505582
0.510908
0.515591
0.515602
0.513562
0.513664
0.514832
0.513694
0.512402
0.514847
0.517567
0.514161
0.50601
0.501371
0.502833
0.498284
0.471926
0.427991
0.390822
0.37538
0.367786
0.344824
0.310259
0.291294
0.295956
0.301142
0.290893
0.278266
0.277478
0.281166
0.279484
0.2785
0.285148
0.292824
0.293317
0.288114
0.281804
0.276789
0.285128
0.282248
0.284976
0.287061
0.284074
0.284195
0.290057
0.288442
0.276782
0.278049
0.299273
0.301768
0.264931
0.249529
0.307366
0.353401
0.274395
0.16564
0.239115
0.435914
0.42511
0.147706
0.0153572
0.283003
0.570857
0.418039
0.0424661
0.0342765
0.420104
0.600681
0.289346
-0.0283911
0.146222
0.540022
0.537568
0.147026
-0.0185067
0.294078
0.590059
0.414286
0.0554521
0.0654788
0.396562
0.526523
0.299066
0.105736
0.209688
0.384247
0.362881
0.239366
0.224441
0.300643
0.324284
0.281463
0.261214
0.283286
0.295373
0.282489
0.275913
0.285315
0.291546
0.288046
0.284792
0.284482
0.294293
0.285383
0.283466
0.282533
0.276151
0.277476
0.291626
0.292462
0.268122
0.260003
0.293033
0.304162
0.242993
0.202358
0.283698
0.362521
0.240642
0.0450305
0.115032
0.390048
0.374326
-0.0448309
-0.274656
0.0744735
0.473634
0.257689
-0.27715
-0.295717
0.246061
0.501731
0.0620566
-0.388654
-0.142741
0.416
0.4134
-0.144204
-0.385038
0.0597026
0.490493
0.249773
-0.262914
-0.251658
0.239692
0.469044
0.189198
-0.060327
0.102289
0.368947
0.360984
0.202753
0.189438
0.299918
0.335516
0.279287
0.257387
0.294702
0.312407
0.287842
0.269761
0.277283
0.284725
0.282794
0.286146
0.294866
0.290309
0.285653
0.286671
0.286365
0.276334
0.272985
0.289349
0.298422
0.276209
0.261038
0.293554
0.320253
0.2721
0.21957
0.279821
0.37221
0.305767
0.146898
0.182076
0.407749
0.446871
0.177848
0.0204044
0.274492
0.569031
0.420856
0.0391343
0.0247972
0.412476