# vtk DataFile Version 3.0
PFC-RG simulation results
ASCII
DATASET STRUCTURED_POINTS
DIMENSIONS 64 64 1
ORIGIN 0 0 0
SPACING 1 1 1
POINT_DATA 4096
SCALARS psi double
LOOKUP_TABLE default
0.482786
0.51203
0.430672
0.380576
0.436402
0.475951
0.456313
0.468964
0.522861
0.53006
0.48207
0.460585
0.506448
0.558234
0.541431
0.475479
0.460916
0.537978
0.586454
0.51563
0.435349
0.49302
0.592549
0.552419
0.45447
0.486837
0.590774
0.558849
0.433581
0.43483
0.560491
0.605914
0.534247
0.488865
0.496142
0.472894
0.412349
0.384771
0.427349
0.485761
0.518287
0.533964
0.418317
0.113264
-0.0408607
0.217487
0.536642
0.556752
0.51094
0.609831
0.495565
-0.0123984
-0.327031
-0.00162076
0.484271
0.576254
0.488745
0.526188
0.455914
0.14896
-0.0328213
0.115942
0.343647
0.438142
0.220377
0.239562
0.330473
0.451112
0.394529
0.120666
0.0077112
0.285252
0.547237
0.357247
-0.00291331
0.0384093
0.422334
0.547583
0.223772
-0.0429927
0.152601
0.501651
0.468452
0.121306
-0.00625434
0.257697
0.486528
0.367675
0.158061
0.163854
0.284955
0.316583
0.330217
0.403262
0.370707
0.202822
0.186599
0.398835
0.486883
0.312751
0.228835
0.421689
0.546937
0.323688
0.0731015
0.200606
0.446971
0.365118
0.190274
0.321237
0.471627
0.286982
0.119136
0.317388
0.480537
0.235484
0.0162656
0.242648
0.494155
0.330356
0.122923
0.278185
0.477395
0.374212
0.201863
0.222599
0.328795
0.36979
-0.0286448
-0.0383122
0.17295
0.423035
0.337381
-0.0816389
-0.248357
0.136191
0.482362
0.202694
-0.28877
-0.210924
0.316363
0.45283
-0.0209331
-0.362622
-0.0507013
0.409558
0.297291
-0.194655
-0.30366
0.100825
0.364342
0.119821
-0.194339
-0.147277
0.0729449
0.141003
0.127491
0.150431
0.0434945
-0.180161
-0.145566
0.209173
0.39947
0.232062
0.160497
0.403785
0.461067
0.0169686
-0.36149
-0.0942538
0.432326
0.563219
0.459414
0.522364
0.458568
-0.018394
-0.351419
-0.0256821
0.486841
0.573538
0.475657
0.569892
0.512687
0.0238053
-0.325512
-0.0278442
0.469082
0.576806
0.43654
0.38543
0.379879
0.283501
0.119864
0.114923
0.285958
0.48817
0.470982
0.214296
0.101826
0.359649
0.598547
0.405953
0.0674426
0.129186
0.498412
0.582773
0.243881
0.0183881
0.255916
0.571647
0.465025
0.114682
0.0739612
0.384811
0.53958
0.309363
0.0813688
0.170507
0.363535
0.371748
0.289955
0.272581
0.195747
0.0420145
0.0906848
0.377274
0.480409
0.242693
0.126316
0.378044
0.499268
0.155038
-0.130147
0.127199
0.497007
0.439832
0.275442
0.435539
0.526702
0.15464
-0.157843
0.113945
0.510568
0.462696
0.296536
0.441157
0.510841
0.136006
-0.162869
0.107395
0.478934
0.407339
0.202025
0.28721
0.449645
0.385145
0.354802
0.460433
0.462992
0.395534
0.434512
0.531547
0.545911
0.502385
0.492807
0.517538
0.533449
0.527259
0.510923
0.502117
0.513564
0.53556
0.537914
0.514256
0.495972
0.515768
0.552129
0.549294
0.498925
0.469191
0.518768
0.576198
0.535321
0.43524
0.433541
0.526886
0.523713
0.4199
0.435746
0.569387
0.481779
0.103978
-0.0658933
0.253561
0.579359
0.510192
0.399737
0.548156
0.534653
0.0745492
-0.240993
0.0900405
0.550576
0.540764
0.388792
0.516051
0.524423
0.06873
-0.270696
0.0390858
0.499543
0.506291
0.373164
0.507217
0.508352
0.0632464
-0.237697
0.065975
0.468031
0.469069
0.223388
0.527839
0.379686
-0.00797404
0.0322937
0.446191
0.562052
0.203757
-0.0532343
0.194705
0.561929
0.476578
0.0672804
-0.0318928
0.334013
0.594805
0.343701
-0.0247008
0.062002
0.462045
0.550218
0.198498
-0.0467747
0.176069
0.517211
0.47327
0.127988
-0.0314421
0.191287
0.470636
0.451693
0.252705
0.226808
0.384103
0.349537
0.0200547
-0.125158
0.199335
0.526132
0.471043
0.392286
0.55471
0.507331
0.00033734
-0.327055
0.0248186
0.516822
0.543565
0.424028
0.55334
0.523441
0.0209162
-0.33263
0.00220036
0.503954
0.547824
0.434508
0.555079
0.5102
0.0334909
-0.231831
0.117256
0.428075
0.243887
-0.0137078
0.434515
0.258175
-0.247811
-0.202848
0.327258
0.462694
-0.0351631
-0.390318
-0.0454622
0.466443
0.347991
-0.221575
-0.356612
0.153586
0.507969
0.147901
-0.360925
-0.222639
0.33601
0.433561
-0.072685
-0.385943
-0.0387617
0.412021
0.287768
-0.193706
-0.32541
0.0494732
0.38912
0.248848
-0.131863
-0.21135
0.106441
0.365358
0.284278
0.208988
0.401464
0.448667
0.0868165
-0.137138
0.173355
0.500068
0.368693
0.19473
0.387166
0.500503
0.152151
-0.119818
0.168285
0.519055
0.403105
0.217455
0.399256
0.517924
0.17942
-0.0946746
0.168234
0.479933
0.365191
0.251141
0.45445
0.425113
-0.052925
0.131616
0.508915
0.394508
0.0427944
0.10934
0.502843
0.585513
0.223673
-0.019932
0.228371
0.585321
0.502931
0.110375
0.0194069
0.373811
0.617677
0.364844
0.0135295
0.117374
0.507344
0.566309
0.211405
0.00873599
0.260069
0.556439
0.451945
0.132461
0.0729565
0.341916
0.553211
0.379221
-0.0191601
-0.150992
0.171672
0.53457
0.548839
0.461467
0.555019
0.468455
-0.0415773
-0.364228
-0.00394461
0.51976
0.600679
0.509769
0.608428
0.51401
-0.0384942
-0.40126
-0.0376962
0.516248
0.611169
0.513296
0.60709
0.521045
-0.0180544
-0.382922
-0.0489217
0.47143
0.571473
0.512979
0.609166
0.488709
0.0348453
0.442158
0.551359
0.519327
0.448824
0.485346
0.539294
0.524305
0.501227
0.516361
0.525234
0.507714
0.502902
0.522356
0.532739
0.519868
0.506885
0.512233
0.528239
0.533213
0.517334
0.501563
0.516365
0.54554
0.533942
0.492202
0.499448
0.552947
0.545956
0.486185
0.502502
0.535877
0.418315
0.298544
0.420546
0.547724
0.355575
0.15024
0.320497
0.508067
0.289646
0.0695764
0.28664
0.515348
0.310992
0.0997067
0.317127
0.519607
0.266637
0.0242207
0.260183
0.517223
0.314374
0.084526
0.293444
0.511124
0.280125
0.0336344
0.242699
0.507235
0.360662
0.145402
0.2799
0.476834
0.415225
0.360861
0.237622
0.322842
0.499889
0.444886
0.12474
0.00382382
0.319883
0.597628
0.372447
-0.01937
0.045977
0.469748
0.580681
0.204115
-0.0647912
0.195459
0.57472
0.478414
0.0567097
-0.0319364
0.351303
0.603095
0.32063
-0.0494474
0.0869449
0.503419
0.508476
0.106839
-0.014293
0.320082
0.555123
0.483793
0.429758
0.35079
-0.00293333
-0.267608
0.0218069
0.498756
0.59237
0.51019
0.596357
0.497359
-0.0397073
-0.389213
-0.0297926
0.513429
0.600139
0.498212
0.597276
0.522118
-0.0186082
-0.397523
-0.0555561
0.503812
0.612722
0.496147
0.568486
0.53996
0.096848
-0.306398
-0.138059
0.356964
0.612603
-0.0163821
-0.119252
0.132403
0.444462
0.330267
-0.166835
-0.341532
0.113801
0.505944
0.193253
-0.348154
-0.257233
0.327023
0.478243
-0.0443982
-0.41656
-0.0536957
0.471806
0.333964
-0.251075
-0.365873
0.16785
0.505179
0.108422
-0.390296
-0.194126
0.365247
0.366551
-0.166075
-0.329582
0.103205
0.413857
0.317394
0.25497
0.276143
0.0792147
-0.0874857
0.157152
0.470833
0.405346
0.276775
0.447494
0.506085
0.114556
-0.174932
0.123807
0.513981
0.443514
0.275765
0.440592
0.52297
0.138001
-0.17588
0.106101
0.513474
0.459661
0.26377
0.394293
0.526228
0.230442
-0.144842
-0.0582437
0.343445
0.519148
-0.115556
-0.0151813
0.307904
0.565457
0.485927
0.139397
0.0116191
0.325992
0.606801
0.395977
0.0180527
0.0789103
0.486369
0.592654
0.228171
-0.0313864
0.221952
0.588486
0.492329
0.0848513
0.00704385
0.382221
0.616684
0.33365
-0.0172527
0.126494
0.520761
0.515685
0.149828
0.0506402
0.300769
0.363991
0.185025
0.231272
0.457927
0.478986
0.424891
0.53059
0.459535
-0.00604632
-0.286342
0.0687714
0.529884
0.529934
0.40265
0.53555
0.518596
0.0371238
-0.30099
0.0317368
0.517738
0.53839
0.400962
0.526259
0.529233
0.0620438
-0.304899
-0.011685
0.492665
0.55915
0.363797
0.373004
0.495796
0.39539
0.1548
0.369749
0.497263
0.47263
0.47947
0.527553
0.529113
0.505416
0.508977
0.526097
0.52838
0.520243
0.514945
0.515913
0.521735
0.525665
0.520759
0.514062
0.517014
0.524054
0.523631
0.520391
0.520563
0.51531
0.510102
0.522565
0.526317
0.489961
0.481011
0.549383
0.532408
0.304029
0.152337
0.354821
0.587519
0.511865
0.421619
0.553133
0.483566
-0.0138648
-0.312385
0.0522426
0.531558
0.545385
0.425593
0.554708
0.519404
0.0171143
-0.327517
0.0143385
0.515116
0.551119
0.426326
0.54846
0.526319
0.0380187
-0.316458
-0.00225393
0.482551
0.52634
0.392273
0.489088
0.56854
0.347811
0.371115
0.550979
0.337841
-0.0456028
0.0258221
0.462948
0.588228
0.223882
-0.0486941
0.195208
0.5741
0.496666
0.0813661
-0.0230532
0.349158
0.614121
0.353023
-0.0236648
0.0781148
0.495693
0.569055
0.187046
-0.0460361
0.227195
0.571599
0.459635
0.0696093
-0.0224904
0.301366
0.561752
0.383059
0.0361242
0.0657942
0.434209
0.50126
0.0898694
-0.14345
0.186933
0.526272
0.401429
0.23804
0.428407
0.515209
0.137372
-0.143471
0.154185
0.519721
0.41739
0.240441
0.418724
0.518112
0.152168
-0.137955
0.144535
0.508019
0.41721
0.253821
0.424014
0.490593
0.126592
-0.102692
0.193915
0.467881
0.300366
0.330065
0.539216
0.194664
-0.344559
-0.26079
0.317284
0.478092
-0.0296208
-0.411475
-0.0718986
0.461469
0.356166
-0.22635
-0.374384
0.146941
0.518524
0.152901
-0.374598
-0.231598
0.354317
0.45754
-0.0802747
-0.409933
-0.0226047
0.469338
0.314363
-0.232494
-0.352365
0.0977784
0.436058
0.213508
-0.135167
0.00870163
0.448721
0.437724
-0.115267
-0.41424
0.000964301
0.53727
0.597007
0.496518
0.602077
0.508175
-0.0495441
-0.408058
-0.0345866
0.520239
0.608697
0.510796
0.610219
0.519916
-0.0342861
-0.401804
-0.0446883
0.500649
0.599353
0.525308
0.622428
0.493124
-0.0482406
-0.3088
0.0702739
0.402011
0.24236
0.204421
0.537456
0.39241
0.0283645
0.0838037
0.48205
0.580694
0.218494
-0.042703
0.201033
0.57439
0.49943
0.0914061
-0.0118587
0.354756
0.616083
0.358301
-0.0129765
0.0889976
0.502038
0.574052
0.196859
-0.0328218
0.237098
0.579298
0.477581
0.107549
0.0255984
0.334485
0.570872
0.395721
0.0816245
0.105304
0.423286
0.519545
0.220626
0.029358
0.285507
0.508748
0.276618
0.0552532
0.289445
0.514332
0.277944
0.0479978
0.283338
0.517814
0.28883
0.058183
0.287512
0.516442
0.284208
0.0515401
0.279471
0.511548
0.2948
0.0799086
0.29437
0.48335
0.26677
0.123062
0.364757
0.477431
0.218875
0.162958
0.432384
0.537611
0.513841
0.516979
0.53389
0.51425
0.498843
0.515229
0.526901
0.517925
0.51205
0.517746
0.521805
0.520308
0.518772
0.518377
0.51923
0.521187
0.519141
0.514377
0.518982
0.52853
0.519735
0.501174
0.512997
0.542822
0.532804
0.509419
0.540739
0.542909
0.396202
0.24302
0.320483
0.519026
0.553915
0.517557
0.597842
0.478974
-0.0494079
-0.383825
-0.0202727
0.519611
0.606338
0.510476
0.607856
0.515188
-0.0388477
-0.405134
-0.0423175
0.513492
0.608656
0.510132
0.606181
0.523477
-0.0166612
-0.388111
-0.0571181
0.47763
0.599789
0.52852
0.590063
0.540694
0.272175
0.20155
0.146249
0.295071
0.523612
0.477915
0.136878
-0.000207892
0.318177
0.606433
0.389677
0.00129939
0.0630634
0.479697
0.589355
0.219505
-0.0440681
0.213572
0.586124
0.487316
0.0699255
-0.0126124
0.370856
0.617153
0.332383
-0.0384452
0.0909531
0.507391
0.541929
0.168629
0.0154182
0.277248
0.456381
0.312038
0.201635
0.298057
0.3459
0.331479
0.454099
0.472228
0.127366
-0.119636
0.163218
0.512039
0.419062
0.25549
0.430518
0.516962
0.141909
-0.15018
0.139196
0.517854
0.432328
0.251727
0.417682
0.52096
0.162173
-0.150776
0.103663
0.503609
0.481456
0.275058
0.315264
0.455979
0.415329
0.24526
-0.0177697
0.0754421
0.374712
0.32181
-0.14952
-0.338141
0.107032
0.503222
0.193273
-0.350425
-0.259435
0.327438
0.478246
-0.0473606
-0.419532
-0.0523956
0.475511
0.334132
-0.255173
-0.367949
0.172263
0.513408
0.115397
-0.391023
-0.20379
0.366193
0.400209
-0.133378
-0.363377
0.0349457
0.431538
0.404562
0.239371
0.128455
-0.0645626
-0.176734
0.100701
0.485933
0.526688
0.44351
0.55517
0.496985
0.00503679
-0.31589
0.0318169
0.520789
0.546648
0.421133
0.545818
0.524704
0.0348926
-0.321273
0.00328032
0.509754
0.557297
0.411811
0.510851
0.541762
0.141774
-0.25961
-0.122283
0.336548
0.565743
0.217557
0.163556
0.286261
0.488186
0.460103
0.14754
0.0135164
0.319536
0.599674
0.381192
-0.0065809
0.0587948
0.478943
0.585323
0.208015
-0.0571362
0.206438
0.583148
0.482376
0.0642711
-0.0138726
0.370552
0.610901
0.327228
-0.0269738
0.113977
0.515789
0.526085
0.143707
-0.0101893
0.255411
0.490591
0.474311
0.408917
0.292256
0.00183818
-0.164026
0.117517
0.499608
0.520901
0.428955
0.547418
0.49885
0.0128957
-0.305156
0.0401846
0.520895
0.538034
0.409088
0.537124
0.523805
0.0416687
-0.311332
0.00991215
0.508425
0.550254
0.408116
0.512531
0.535208
0.121988
-0.264996
-0.0913994
0.361379
0.542941
0.0904361
0.421904
0.560946
0.506518
0.491979
0.526084
0.525241
0.512453
0.523716
0.529707
0.515503
0.510718
0.523691
0.529086
0.519054
0.511981
0.51732
0.524825
0.52438
0.518204
0.515555
0.521209
0.525283
0.517052
0.510208
0.520321
0.521333
0.490589
0.484302
0.53244
0.499998
0.317372
0.237105
0.42534
0.568359
0.426538
0.316392
0.472716
0.496811
0.115296
-0.143632
0.157465
0.521341
0.432008
0.270686
0.443274
0.517704
0.129912
-0.1664
0.127884
0.516763
0.441502
0.265725
0.427466
0.518452
0.150315
-0.154893
0.111174
0.493019
0.439193
0.257203
0.365382
0.46522
0.260627
0.0398293
0.490069
0.453021
0.0754501
0.073168
0.459163
0.58249
0.239533
-0.0168843
0.222336
0.583102
0.4999
0.0991355
0.00589324
0.368438
0.619009
0.361074
-0.00276667
0.0991566
0.505198
0.574147
0.198235
-0.0326704
0.235407
0.575053
0.456101
0.0575067
-0.027099
0.321961
0.582864
0.330766
-0.141286
-0.187895
0.26002
0.588021
0.497941
0.420638
0.579184
0.491637
-0.0570023
-0.389913
-0.00740441
0.531559
0.603003
0.503195
0.605957
0.516053
-0.0356673
-0.398509
-0.0362986
0.514063
0.604235
0.505319
0.604295
0.522029
-0.0203063
-0.385952
-0.0454182
0.475274
0.562704
0.491832
0.594583
0.485002
-0.00649996
0.261008
0.529455
0.251743
-0.293759
-0.251283
0.3084
0.469948
-0.0342279
-0.405626
-0.0566644
0.467728
0.346702
-0.233357
-0.366445
0.157153
0.516523
0.145285
-0.375279
-0.228569
0.351614
0.450666
-0.084217
-0.412513
-0.0298854
0.457058
0.297623
-0.251929
-0.365008
0.0995999
0.438831
0.172956
-0.269277
-0.205726
0.279416
0.455798
0.121795
-0.0582838
0.261774
0.507127
0.26957
0.0589383
0.303799
0.514832
0.256934
0.0244157
0.271142
0.51692
0.298866
0.0761453
0.302296
0.517497
0.271117
0.0338083
0.269326
0.512882
0.299111
0.0810886
0.299232
0.492143
0.253217
0.0708905
0.316394
0.447171
0.109884
0.48732
0.61393
0.355656
-0.0473284
0.0293814
0.472904
0.579952
0.191451
-0.0766663
0.18978
0.573249
0.481829
0.0622771
-0.030562
0.348645
0.607257
0.340652
-0.0320643
0.0736103
0.489182
0.562289
0.185314
-0.0469159
0.219004
0.561412
0.465558
0.10255
0.0174136
0.303822
0.526364
0.397565
0.175648
0.256369
0.536422
0.462179
-0.071432
-0.354798
0.0392568
0.537695
0.583248
0.491604
0.602119
0.501796
-0.0597376
-0.411273
-0.0316934
0.520655
0.605852
0.508638
0.610002
0.52015
-0.0364471
-0.407244
-0.0480626
0.505011
0.603301
0.514977
0.610902
0.510919
-0.0252214
-0.350266
-0.00117415
0.451558
0.449002
0.288871
0.459682
0.514383
0.444058
0.456059
0.535823
0.543198
0.493348
0.483058
0.515889
0.53432
0.522401
0.506782
0.507676
0.521289
0.529988
0.523618
0.512649
0.512786
0.521683
0.525806
0.524825
0.52209
0.510887
0.501485
0.522293
0.554254
0.532205
0.473542
0.479273
0.538987
0.528401
0.48302
0.532797
0.497754
0.189789
-0.00338731
0.259424
0.537422
0.401037
0.238211
0.42356
0.513602
0.149532
-0.119606
0.176481
0.527885
0.408486
0.221121
0.403515
0.518908
0.165218
-0.126602
0.148669
0.51191
0.418686
0.236036
0.398901
0.506491
0.174397
-0.114298
0.118297
0.494218
0.527245
-0.113819
0.0833696
0.404284
0.578059
0.444299
0.131737
0.0533935
0.35871
0.603341
0.387904
0.0329279
0.104171
0.497233
0.587972
0.228518
-0.0151498
0.239844
0.589918
0.482243
0.0828589
0.0129785
0.378685
0.602767
0.325405
-0.0248835
0.097168
0.487427
0.516527
0.158782
0.00760906
0.23751
0.350494
0.155828
0.107222
0.343494
0.468074
0.454156
0.545266
0.474916
0.00820184
-0.296935
0.0436217
0.523422
0.549658
0.431941
0.559501
0.52745
0.0237735
-0.331802
0.00501891
0.515264
0.560818
0.432554
0.546167
0.527033
0.0465804
-0.319441
-0.0214762
0.483992
0.561954
0.4078
0.442524
0.509112
0.326974
-0.11322
-0.0337521
0.269811
0.480894
0.277986
-0.187056
-0.29236
0.16247
0.506635
0.176846
-0.338657
-0.22788
0.340882
0.466907
-0.053542
-0.404818
-0.0408198
0.461609
0.313631
-0.252904
-0.359448
0.149069
0.471114
0.102423
-0.376203
-0.22613
0.283824
0.329576
-0.115372
-0.28487
0.0238316
0.170771
-0.0761061
-0.132605
0.212086
0.438414
0.409368
0.460344
0.428113
0.0206738
-0.276779
0.0418075
0.506994
0.51745
0.376201
0.50287
0.510895
0.0559513
-0.283729
0.0329786
0.51124
0.531578
0.391799
0.514525
0.52706
0.0793593
-0.283763
-0.00965363
0.481161
0.565489
0.409788
0.41899
0.459459
0.262623
0.256667
0.237415
0.365034
0.485966
0.381829
0.0970226
0.0322016
0.348477
0.589756
0.350308
-0.0227776
0.0587909
0.47271
0.565993
0.191882
-0.0630113
0.194607
0.558957
0.466823
0.0677594
-0.0212337
0.3306
0.575464
0.336956
-0.00344756
0.0849179
0.435449
0.465456
0.15693
0.068379
0.314886
0.403253
0.202939
0.169624
0.366967
0.317937
0.0794437
0.186327
0.484814
0.444462
0.27966
0.411389
0.491634
0.132745
-0.168843
0.104563
0.501857
0.455067
0.290904
0.440289
0.511517
0.129016
-0.178491
0.10201
0.506686
0.462329
0.279377
0.402597
0.504836
0.210056
-0.0814043
0.0787813
0.399144
0.438002
0.386385
0.456282
0.453124
0.414375
0.452738
0.514004
0.518779
0.508023
0.5226
0.525094
0.502086
0.497372
0.522869
0.539145
0.525546
0.503945
0.50308
0.527571
0.549178
0.534431
0.497296
0.498861
0.546168
0.556508
0.504729
0.487993
0.538317
0.52909
0.43781
0.441817
0.543311
0.52
0.389906
0.42379
0.529351
0.320743
-0.013503
0.102836
0.515214
0.628875
0.531533
0.57759
0.495086
0.0154393
-0.318047
0.0057556
0.516009
0.598191
0.500777
0.595985
0.517334
-0.0125559
-0.376405
-0.0399765
0.494773
0.590518
0.487181
0.568341
0.508053
0.043073
-0.284238
-0.0230905
0.399063
0.48659
0.146647
0.415106
0.354022
0.108356
0.179398
0.507507
0.560713
0.232582
0.0303135
0.273078
0.589865
0.490082
0.124967
0.0610579
0.398142
0.602727
0.347403
0.0336699
0.148988
0.493729
0.514297
0.195276
0.043947
0.248719
0.445626
0.364676
0.191142
0.144683
0.190278
0.2457
0.262478
0.179951
0.0715032
0.146523
0.34683
0.344872
0.175984
0.205924
0.346636
0.247571
0.116426
0.29336
0.478186
0.309802
0.140555
0.345786
0.514363
0.252079
0.0229647
0.265361
0.517131
0.316867
0.0983278
0.306482
0.50804
0.268873
0.0372085
0.255331
0.482155
0.28886
0.0964797
0.282031
0.431802
0.231078
0.0411798
0.402528
0.303732
-0.0794419
-0.0552379
0.352595
0.427598
-0.0230229
-0.317785
0.0142945
0.466339
0.329131
-0.197768
-0.304897
0.166251
0.469914
0.126058
-0.328151
-0.200894
0.2759
0.34719
-0.0647585
-0.303025
-0.0683634
0.204669
0.140794
-0.0570534
-0.104601
-0.0500123
0.00184123
0.0441265
0.011664
-0.116437
-0.123946
0.115377
0.361058
0.409885
0.34954
0.181613
-0.138496
-0.277346
0.0424894
0.453569
0.518654
0.465987
0.582849
0.488372
-0.0562788
-0.401058
-0.031867
0.508618
0.587786
0.484064
0.585195
0.519298
0.00457172
-0.344936
-0.0178037
0.472244
0.53981
0.454367
0.532084
0.438898
0.0270308
0.26287
0.529562
0.430728
0.106521
0.109398
0.428755
0.511819
0.197068
-0.0210805
0.209923
0.538389
0.453839
0.0803978
-0.0108591
0.317818
0.557633
0.340792
0.00797528
0.0656545
0.404454
0.496667
0.233073
0.0507027
0.188222
0.371876
0.343344
0.237154
0.227277
0.24789
0.255753
0.312286
0.352652
0.259385
0.165093
0.257844
0.438009
0.518146
0.480713
0.313253
0.0411354
-0.0354147
0.251188
0.503267
0.36578
0.203331
0.39388
0.504951
0.153579
-0.122157
0.163531
0.51608
0.397365
0.193891
0.364936
0.50508
0.198499
-0.0746181
0.164327
0.486209
0.417318
0.272106
0.377919
0.417521
0.176699
0.388667
0.491833
0.475326
0.369827
0.376061
0.482034
0.530092
0.491519
0.459854
0.482382
0.52505
0.539184
0.50975
0.474778
0.494179
0.557217
0.569175
0.50072
0.4628
0.530294
0.588894
0.527938
0.458952
0.510809
0.585777
0.534983
0.448212
0.479826
0.5594
0.552882
0.49123
0.483553
0.528869
0.560339
0.511268
0.379925
0.319147
0.43201
0.518814
0.402305
0.335811
0.520316
0.565896
0.150938
-0.199542
0.0790388
0.53672
0.549068
0.404273
0.520844
0.530221
0.0856559
-0.269913
0.010411
0.483055
0.53894
0.414661
0.491211
0.482499
0.144621
-0.0967369
0.099081
0.39943
0.440632
0.207702
0.218476
0.315911
0.413761
0.398302
0.257394
0.211203
0.390409
0.534837
0.380151
0.149809
0.224632
0.491856
0.513379
0.257476
0.135543
0.302131
0.446454
0.361808
0.237643
0.231278
0.240153
0.229837
0.307583
0.399261
0.28652
0.0790385
0.121849
0.383587
0.451512
0.188139
-0.00748976
0.187455
0.51821
0.485618
0.0813604
-0.123942
0.167129
0.477037
0.345091
0.127202
0.295704
0.49092
0.19028
-0.194474
0.00123794
0.454996
0.516477
0.373358
0.452904
0.487462
0.137407
-0.167239
0.0655557
0.471161
0.521277
0.416142
0.469208
0.43606
0.138233
-0.0564145
0.125114
0.411863
0.478165
0.0875944
0.0988663
0.228441
0.385766
0.349287
0.0834622
-0.048923
0.183288
0.410078
0.215901
-0.126403
-0.0688787
0.289473
0.356214
0.0267065
-0.181299
-0.0121833
0.189021
0.139057
0.0118423
-0.0274065
-0.0751793
-0.107214
0.0471875
0.240494
0.10452
-0.228719
-0.213113
0.191509
0.361708
-0.00754431
-0.361152
-0.132926
0.374939
0.420089
-0.0536141
-0.296692
0.0712046
0.420881
0.15532
-0.251518
-0.0752687
0.399428
0.441387
0.17257
0.180186
0.335229
0.186437
-0.0406007
0.103425
0.408648
0.435277
0.331378
0.413842
0.454345
0.213241
0.0346767
0.192885
0.385181
0.35293
0.287196
0.351381
0.404162
0.330676
0.252719
0.27585
0.320132
0.41918
0.426729
0.243736
0.110532
0.26036
0.464491
0.367116
0.105631
0.105839
0.365553
0.461812
0.260205
0.10066
0.192521
0.329945
0.324906
0.28223
0.274862
0.206125
0.137005
0.258235
0.456638
0.38609
0.109808
0.0821075
0.393189
0.564386
0.309967
0.0191896
0.144174
0.50373
0.556642
0.237927
0.07391
0.341096
0.575611
0.325698
-0.0423415
0.0652703
0.476898
0.614518
0.47378
0.417865
0.387897
0.157247
-0.0465308
0.102656
0.416568
0.527914
0.508297
0.539409
0.422463
0.0798469
-0.0864497
0.127298
0.38934
0.443491
0.408771
0.386143
0.311606
0.219133
0.430781
0.406441
0.326087
0.348959
0.445248
0.448995
0.374311
0.389701
0.500458
0.528663
0.43279
0.388057
0.481377
0.560877
0.506577
0.439428
0.488498
0.559918
0.52138
0.45944
0.501996
0.568431
0.537978
0.468851
0.485352
0.548608
0.554132
0.507655
0.48798
0.517995
0.550125
0.545322
0.507156
0.484121
0.501177
0.517668
0.508112
0.509153
0.520136
0.4914
0.458471
0.477448
0.473055
0.400042
0.394078
0.492671
0.497772
0.360404
0.315033
0.444285
0.486505
0.305657
0.194707
0.327814
0.4008
0.253884
0.183041
0.320906
0.409949
0.324632
0.23786
0.236758
0.230687
0.23475
0.391634
0.317043
0.193845
0.184002
0.311048
0.411688
0.373012
0.286512
0.292435
0.364238
0.376629
0.325016
0.308301
0.318257
0.269332
0.227228
0.316882
0.417142
0.290167
0.0630426
0.110703
0.413991
0.514795
0.222228
-0.028505
0.159593
0.515339
0.493137
0.111452
-0.0482434
0.269065
0.584757
0.408125
0.0153578
0.0234892
0.406841
0.549986
0.240247
-0.0185701
0.181941
0.552038
0.551365
0.157279
-0.10737
0.0819812
0.394942
0.397552
0.237977
0.315713
0.542134
0.468474
0.0742768
-0.114268
0.131609
0.408555
0.426642
0.37433
0.395307
0.355746
0.211968
0.136677
0.202092
0.280083
0.312913
0.261101
0.229266
0.18617
0.184839
0.24371
0.30045
0.275591
0.184301
0.130657
0.157241
0.191807
0.185057
0.167244
0.115928
-0.0131886
-0.0809924
0.0806152
0.268288
0.103391
-0.263728
-0.257151
0.186668
0.405323
0.0244202
-0.379784
-0.158507
0.371133
0.388687
-0.145369
-0.402752
0.0254446
0.478096
0.246756
-0.29602
-0.279012
0.275676
0.488387
0.0260511
-0.386766
-0.116315
0.426985
0.444333
-0.0572235
-0.312476
0.0280821
0.401125
0.261693
-0.0736597
-0.00783158
0.359266
0.439218
0.137293
-0.0267717
0.186804
0.418734
0.391926
0.266168
0.240803
0.270118
0.25899
0.256855
0.317253
0.365261
0.339012
0.230215
0.285033
0.33698
0.338506
0.303963
0.298043
0.322754
0.31079
0.255169
0.230039
0.267319
0.321918
0.347439
0.304369
0.188008
0.130614
0.273438
0.459445
0.367181
0.0770064
0.0431703
0.368589
0.565027
0.308775
-0.00210994
0.133854
0.518468
0.550637
0.177909
-0.0133349
0.281301
0.599179
0.433628
0.0462109
0.0577569
0.45635
0.613478
0.283169
-0.0231014
0.15158
0.521737
0.529099
0.198999
0.0729837
0.350725
0.583684
0.387896
0.0400269
0.0374313
0.350345
0.526298
0.412851
0.296419
0.341367
0.383267
0.287384
0.15415
0.147806
0.267057
0.36938
0.386097
0.365013
0.338526
0.291549
0.289258
0.354108
0.401687
0.369814
0.295102
0.298826
0.39182
0.438448
0.385188
0.352928
0.413285
0.467245
0.449829
0.439595
0.478285
0.495303
0.47082
0.480109
0.527574
0.539746
0.504891
0.488636
0.516278
0.540404
0.531571
0.509953
0.50652
0.521477
0.533494
0.529179
0.51771
0.515251
0.519037
0.519702
0.517053
0.513502
0.51095
0.517168
0.5281
0.521464
0.497202
0.487917
0.507129
0.525861
0.520596
0.502278
0.478271
0.441079
0.411276
0.424167
0.469904
0.49809
0.458105
0.355055
0.275785
0.262393
0.26016
0.265563
0.317652
0.367747
0.346661
0.282461
0.249977
0.25903
0.317073
0.327219
0.313191
0.248223
0.195939
0.246694
0.347038
0.346232
0.256337
0.257756
0.358723
0.333398
0.155211
0.129458
0.360229
0.478906
0.233581
-0.0181732
0.14592
0.5059
0.506844
0.132292
-0.0403168
0.265411
0.584799
0.419204
0.0202265
0.00975415
0.408154
0.59422
0.276229
-0.0447162
0.137443
0.539066
0.530949
0.122012
-0.0534233
0.279348
0.607506
0.426795
0.0282982
0.0370557
0.42428
0.562729
0.233219
-0.0362514
0.175908
0.537895
0.519867
0.199912
0.0746848
0.264226
0.388959
0.253201
0.14076
0.257188
0.407681
0.400522
0.307883
0.252866
0.239756
0.232424
0.244522
0.28697
0.277588
0.274406
0.25072
0.201993
0.197911
0.265149
0.298962
0.204191
0.0939361
0.157686
0.300257
0.209173
-0.0887765
-0.142797
0.188851
0.37572
0.0297279
-0.366762
-0.172781
0.349815
0.387097
-0.138473
-0.407867
0.0138134
0.479924
0.261005
-0.303159
-0.326336
0.232694
0.497997
0.0515766
-0.403908
-0.149141
0.421517
0.417529
-0.154825
-0.403881
0.0557296
0.502964
0.240971
-0.307668
-0.271176
0.28901
0.482332
0.00752704
-0.383819
-0.0852005
0.440599
0.422577
-0.0404318
-0.209971
0.114651
0.381584
0.265911
0.110181
0.218178
0.397669
0.388712
0.248545
0.179115
0.23157
0.301733
0.318699
0.308087
0.241671
0.275131
0.291031
0.288656
0.316615
0.356663
0.327248
0.223193
0.172709
0.276118
0.410124
0.349551
0.137157
0.104624
0.36019
0.521955
0.290039
-0.00442072
0.118829
0.497312
0.539077
0.168147
-0.0318353
0.262926
0.596987
0.446142
0.0471709
0.0287492
0.422849
0.610633
0.295482
-0.0284648
0.147357
0.548709
0.549297
0.150498
-0.0232731
0.297823
0.605032
0.410071
0.0190641
0.0517154
0.458481
0.601316
0.263924
-0.02308
0.171913
0.526578
0.495835
0.155553
0.0448951
0.304473
0.516338
0.421361
0.243557
0.224467
0.300219
0.310655
0.248206
0.228798
0.300263
0.37037
0.348509
0.271963
0.270151
0.297542
0.315464
0.335991
0.363929
0.357968
0.315891
0.305424
0.351184
0.394304
0.403766
0.418308
0.448435
0.46029
0.462442
0.486924
0.515834
0.51726
0.503561
0.505977
0.520898
0.52649
0.520335
0.51436
0.515746
0.520922
0.523831
0.52173
0.518061
0.517769
0.521169
0.52303
0.519029
0.513879
0.515532
0.522288
0.525081
0.522339
0.518675
0.514513
0.511225
0.513354
0.517416
0.517363
0.517317
0.517959
0.509738
0.493981
0.481541
0.474001
0.467415
0.456801
0.444067
0.431482
0.387263
0.298132
0.240756
0.268576
0.314843
0.320114
0.316301
0.323698
0.301485
0.245836
0.328483
0.289209
0.26515
0.284739
0.295663
0.240808
0.203176
0.293092
0.39362
0.294163
0.103511
0.154179
0.409812
0.437586
0.136929
-0.0209112
0.254489
0.562697
0.417481
0.0341367
0.0146171
0.401671
0.597753
0.292784
-0.0399286
0.122176
0.529355
0.5446
0.142631
-0.0466652
0.275142
0.605595
0.427041
0.0190423
0.0208758
0.42868
0.602601
0.273368
-0.0374425
0.158966
0.553678
0.528904
0.124019
-0.0295975
0.303934
0.600573
0.404436
0.0387888
0.0756056
0.433523
0.543387
0.258359
0.0395616
0.185591
0.401779
0.360904
0.216126
0.23778
0.352869
0.353618
0.25753
0.216983
0.257401
0.293877
0.330264
0.259197
0.23093
0.265291
0.26876
0.18184
0.136054
0.258572
0.365154
0.184607
-0.104625
-0.0434749
0.305373
0.332533
-0.111481
-0.364972
0.00616443
0.44833
0.252168
-0.296122
-0.334563
0.213245
0.497968
0.070614
-0.401473
-0.175114
0.399876
0.423217
-0.143137
-0.411581
0.0403865
0.506579
0.25758
-0.315295
-0.313226
0.259219
0.501464
0.033466
-0.407871
-0.128469
0.435109
0.402885
-0.172304
-0.392817
0.0778013
0.497483
0.222296
-0.289801
-0.22805
0.29439
0.466743
0.0792037
-0.210236
0.0270398
0.386124
0.39202
0.206563
0.199466
0.332231
0.345063
0.22685
0.17647
0.258659
0.349176
0.267687
0.247588
0.267708
0.323787
0.337734
0.26798
0.220236
0.301046
0.387556
0.280989
0.0985956
0.164895
0.436054
0.474019
0.16538
-0.0179906
0.246345
0.568881
0.43531
0.0437439
0.0121805
0.400989
0.605749
0.30455
-0.0306123
0.12785
0.534053
0.551496
0.152024
-0.0383437
0.279509
0.608169
0.432423
0.0275285
0.0289389
0.434519
0.60629
0.273201
-0.04301
0.152236
0.552055
0.530635
0.122111
-0.035476
0.299289
0.597612
0.397831
0.0239157
0.0574849
0.425962
0.550648
0.272523
0.053413
0.198085
0.424705
0.399499
0.234382
0.203549
0.303473
0.343329
0.280031
0.23854
0.279012
0.326961
0.235718
0.274752
0.306987
0.331985
0.352822
0.354223
0.333573
0.322939
0.345382
0.378195
0.396472
0.413307
0.444906
0.477397
0.490962
0.49085
0.496761
0.511448
0.519457
0.516833
0.513789
0.515557
0.518755
0.52001
0.519804
0.519115
0.518868
0.519727
0.520913
0.520746
0.519276
0.518499
0.518553
0.517933
0.518289
0.521438
0.523563
0.521006
0.51672
0.515601
0.518052
0.519268
0.515995
0.513529
0.517619
0.522589
0.517205
0.500526
0.48595
0.484514
0.487336
0.477315
0.450691
0.412482
0.369353
0.327474
0.289062
0.267146
0.280444
0.315999
0.336323
0.326007
0.29823
0.269964
0.283042
0.322276
0.292545
0.230284
0.237213
0.320976
0.346722
0.240801
0.158662
0.267887
0.422264
0.330456
0.0699378
0.0558041
0.368461
0.542087
0.279792
-0.0244009
0.12068
0.511733
0.542981
0.158049
-0.0423917
0.261297
0.599
0.442042
0.0357032
0.018426
0.419338
0.610434
0.291565
-0.037178
0.139771
0.54456
0.543524
0.14084
-0.0306517
0.297664
0.610747
0.418733
0.0248583
0.0476828
0.450113
0.601829
0.27118
-0.0178373
0.181135
0.542516
0.503588
0.148349
0.0388833
0.315434
0.522866
0.372262
0.151901
0.185442
0.340065
0.349117
0.250349
0.234122
0.310661
0.349311
0.306716
0.258024
0.329344
0.348933
0.277471
0.16433
0.150137
0.266112
0.325699
0.187217
0.0438498
0.158862
0.355213
0.20835
-0.191131
-0.244048
0.185321
0.431906
0.0558302
-0.388057
-0.190649
0.366411
0.416061
-0.128217
-0.414632
0.0134693
0.49227
0.271704
-0.30359
-0.330252
0.235805
0.507603
0.0587519
-0.405381
-0.154851
0.418589
0.415848
-0.15943
-0.406632
0.0603455
0.50999
0.24127
-0.32005
-0.292965
0.276232
0.490906