# vtk DataFile Version 3.0
PFC-RG simulation results
ASCII
DATASET STRUCTURED_POINTS
DIMENSIONS 64 64 1
ORIGIN 0 0 0
SPACING 1 1 1
POINT_DATA 4096
SCALARS psi double
LOOKUP_TABLE default
0.482157
0.542547
0.510142
0.432145
0.466846
0.544416
0.530603
0.483704
0.511897
0.555554
0.521441
0.474057
0.527912
0.600247
0.541506
0.431733
0.476701
0.621409
0.600977
0.438601
0.418503
0.5816
0.635798
0.496718
0.426152
0.535203
0.618564
0.537208
0.438095
0.476189
0.575249
0.585003
0.519582
0.49392
0.519012
0.525345
0.497307
0.471892
0.46857
0.478606
0.513849
0.55673
0.45291
0.176736
0.0829415
0.348144
0.580161
0.521589
0.482959
0.614438
0.489747
-0.03758
-0.311353
0.0853946
0.573006
0.598986
0.488955
0.579698
0.498675
0.0210331
-0.291797
1.62543e-05
0.480166
0.620018
-0.0135818
0.104501
0.364548
0.531366
0.417806
0.124921
0.0423748
0.320928
0.55954
0.374966
0.0357494
0.0662442
0.423183
0.542745
0.235122
-0.0174678
0.171726
0.485738
0.42858
0.138226
0.094564
0.322362
0.425628
0.312958
0.248085
0.272431
0.233162
0.202882
0.339463
0.467979
0.326664
0.098378
0.172167
0.458352
0.473974
0.170439
0.0639617
0.369009
0.601983
0.367783
0.0463331
0.157325
0.443776
0.388269
0.203305
0.309912
0.460251
0.331254
0.226126
0.405708
0.477728
0.168132
-0.0308595
0.248653
0.513555
0.347971
0.176384
0.366857
0.512151
0.267285
0.0259404
0.175046
0.442177
0.438981
-0.347439
-0.243671
0.1439
0.437237
0.25881
-0.216617
-0.332269
0.111541
0.454831
0.152115
-0.333328
-0.242903
0.275466
0.401904
-0.0504124
-0.35706
-0.0522791
0.357405
0.234153
-0.17514
-0.21716
0.110134
0.265425
0.101303
-0.0385621
-0.0392778
-0.0519485
-0.0240706
0.161162
0.254036
-0.00816978
-0.303596
-0.136875
0.298305
0.330022
-0.0869085
-0.236768
0.178003
0.47642
0.111317
-0.35269
-0.156826
0.388108
0.54494
0.417598
0.440994
0.379325
-0.0315812
-0.290502
0.0370957
0.488237
0.531436
0.443525
0.55105
0.468611
-0.036212
-0.346384
0.00142609
0.503239
0.580205
0.435962
0.437512
0.445439
0.224298
-0.00760431
0.0367966
0.293166
0.507826
0.408512
0.0878773
0.0092323
0.332601
0.581223
0.353441
0.00209077
0.0869482
0.473002
0.549312
0.208488
0.00577775
0.253804
0.544378
0.422711
0.114033
0.109572
0.370541
0.469514
0.317977
0.210967
0.234537
0.245186
0.261181
0.37358
0.405334
0.184187
-0.0216139
0.147773
0.503046
0.508517
0.130511
-0.0434679
0.270992
0.521076
0.236405
-0.105515
0.0923101
0.489756
0.496335
0.349054
0.463073
0.485562
0.079706
-0.215151
0.0900041
0.513602
0.498411
0.364348
0.497484
0.498715
0.0639139
-0.229901
0.0832546
0.4962
0.459154
0.276544
0.363741
0.493255
0.356412
0.421794
0.506022
0.50827
0.451201
0.46794
0.523757
0.533855
0.521289
0.52386
0.522755
0.51717
0.525275
0.532555
0.519491
0.5105
0.531024
0.547582
0.524638
0.493304
0.516534
0.565935
0.549343
0.477244
0.477713
0.573268
0.593374
0.483373
0.429153
0.539601
0.617553
0.506854
0.387732
0.468281
0.627286
0.58182
0.323778
0.197328
0.405395
0.612592
0.513425
0.40004
0.535174
0.540649
0.140672
-0.127717
0.186899
0.573743
0.494619
0.327111
0.478745
0.51968
0.101784
-0.198858
0.115899
0.529307
0.485422
0.345242
0.492991
0.501741
0.0690928
-0.217631
0.0873567
0.491225
0.5154
0.27099
0.543886
0.371435
0.00275577
0.0716691
0.482076
0.578658
0.218768
-0.0279831
0.216301
0.569851
0.483928
0.0882951
-0.00717526
0.343571
0.590511
0.343771
-0.0127958
0.0726577
0.463812
0.5513
0.203508
-0.0447192
0.175916
0.514968
0.45882
0.123398
0.0189862
0.264875
0.468164
0.384292
0.215993
0.186001
0.249561
0.253778
0.172369
0.170308
0.35396
0.490469
0.417944
0.412595
0.581535
0.481541
-0.0476379
-0.346436
0.0378667
0.536148
0.564481
0.459334
0.585495
0.515425
-0.0228103
-0.365247
0.00350733
0.516653
0.561256
0.46353
0.58472
0.505165
-0.000543741
-0.262483
0.0985759
0.418149
0.260104
-0.0542924
0.393785
0.198104
-0.311739
-0.240534
0.315363
0.449393
-0.0622378
-0.41611
-0.0584334
0.457024
0.330166
-0.241164
-0.366147
0.148464
0.493791
0.127943
-0.370502
-0.222524
0.330605
0.420462
-0.0794833
-0.381309
-0.0353827
0.399475
0.263996
-0.193414
-0.283521
0.0729732
0.32999
0.183089
-0.0952756
-0.182575
-0.0616534
0.0961178
0.165632
0.227088
0.35656
0.32534
0.0421974
-0.0561921
0.25517
0.47919
0.271417
0.0988943
0.33011
0.482799
0.180145
-0.0456223
0.240623
0.524379
0.339753
0.146195
0.359989
0.499443
0.177767
-0.0612227
0.217545
0.495812
0.344988
0.234061
0.448416
0.401848
-0.100089
0.117489
0.507968
0.373615
-0.0156586
0.045316
0.4697
0.57071
0.194275
-0.0610741
0.202282
0.576043
0.486021
0.0797109
-0.00437849
0.365787
0.610092
0.348493
0.000802173
0.115105
0.503914
0.554137
0.201859
0.0142814
0.273626
0.558569
0.436215
0.125923
0.0965293
0.354631
0.511773
0.369789
0.128364
0.0521323
0.207844
0.420507
0.472729
0.438833
0.472788
0.350586
-0.0712853
-0.29254
0.0653767
0.5283
0.586062
0.511327
0.609799
0.489862
-0.0686201
-0.399779
-0.0109027
0.530805
0.608641
0.518925
0.61742
0.50618
-0.0500868
-0.38806
-0.0227879
0.48898
0.569819
0.518294
0.626179
0.494266
0.0200022
0.470351
0.576081
0.541382
0.451466
0.473549
0.541324
0.541029
0.505925
0.504966
0.523155
0.523693
0.514702
0.516973
0.525517
0.524556
0.515795
0.514741
0.527845
0.535652
0.520499
0.501865
0.515837
0.549299
0.543716
0.499109
0.490756
0.544737
0.569491
0.520616
0.491673
0.526948
0.526951
0.469345
0.498485
0.574642
0.477438
0.318729
0.379662
0.459778
0.24781
0.0667975
0.280432
0.510645
0.357989
0.195645
0.390312
0.514488
0.20338
-0.0370949
0.23232
0.520136
0.348072
0.145487
0.345695
0.514483
0.245843
0.00820725
0.24095
0.508826
0.358563
0.147678
0.287899
0.49631
0.454891
0.323422
0.165662
0.288761
0.518497
0.473713
0.142496
0.017411
0.330803
0.604104
0.38263
-0.00122703
0.061865
0.475757
0.582499
0.209013
-0.0572252
0.201447
0.575898
0.474695
0.0549958
-0.0260159
0.357417
0.599228
0.313115
-0.0522991
0.0797144
0.497641
0.533602
0.143945
-0.0378744
0.251864
0.527388
0.433946
0.249014
0.173815
0.0328436
-0.0876492
0.124873
0.480496
0.557708
0.499476
0.572302
0.462301
-0.0384899
-0.344625
0.0112407
0.516243
0.57746
0.478066
0.585935
0.513901
-0.0169781
-0.379479
-0.0356937
0.50771
0.605273
0.490315
0.564558
0.539791
0.107247
-0.302677
-0.162421
0.330396
0.616991
-0.092014
-0.273287
0.022271
0.433249
0.348672
-0.178757
-0.369993
0.0978874
0.503435
0.191501
-0.354059
-0.264548
0.321796
0.474722
-0.0486432
-0.419932
-0.0543824
0.468366
0.32321
-0.258434
-0.358483
0.177782
0.499019
0.0955467
-0.390144
-0.188187
0.370008
0.386531
-0.150171
-0.37089
0.0443156
0.414745
0.258186
-0.037706
-0.10948
-0.114973
-0.085168
0.16171
0.425422
0.402574
0.336194
0.48792
0.482013
0.0583577
-0.223466
0.0946181
0.511396
0.474509
0.325176
0.474131
0.519525
0.106679
-0.212785
0.0810144
0.510937
0.476388
0.276501
0.388873
0.527997
0.261675
-0.125273
-0.0973735
0.286117
0.500982
-0.0701968
-0.0869351
0.227697
0.555654
0.494362
0.111763
-0.0306069
0.304851
0.603972
0.390155
0.003363
0.0645553
0.479206
0.589935
0.225077
-0.0332437
0.223288
0.587835
0.486406
0.0837615
0.0188052
0.393499
0.613772
0.331419
0.000173457
0.148956
0.532114
0.528159
0.155296
0.0270036
0.321928
0.530974
0.368285
0.1842
0.223328
0.310511
0.384645
0.490315
0.387156
-0.0184252
-0.215825
0.137644
0.536733
0.493563
0.361164
0.50772
0.5165
0.0645326
-0.262333
0.0557052
0.51819
0.52233
0.377043
0.507202
0.532515
0.0841554
-0.297251
-0.0335494
0.478178
0.580558
0.377403
0.338535
0.479664
0.475739
0.314006
0.425053
0.503235
0.493826
0.495916
0.518157
0.518195
0.511625
0.517954
0.523638
0.522195
0.520219
0.51773
0.515524
0.520411
0.527974
0.524104
0.512979
0.513624
0.526734
0.531482
0.520681
0.51188
0.51715
0.529323
0.53311
0.519101
0.497274
0.505976
0.551171
0.548339
0.446715
0.382459
0.488172
0.598659
0.543777
0.506568
0.583571
0.426691
-0.0733694
-0.322003
0.0642681
0.541204
0.563934
0.45482
0.575855
0.522422
0.00519058
-0.349846
-0.00705542
0.512195
0.567702
0.44206
0.55286
0.533984
0.0554561
-0.311853
-0.0239153
0.459588
0.520881
0.375395
0.446527
0.577792
0.494261
0.44085
0.595303
0.365715
-0.0233714
0.029247
0.457279
0.601016
0.249299
-0.0419545
0.180787
0.566642
0.506117
0.0885628
-0.029782
0.33976
0.611881
0.351301
-0.0314261
0.0704366
0.494234
0.565898
0.172411
-0.0623561
0.228204
0.579859
0.44028
0.033118
-0.010893
0.366179
0.577498
0.294854
-0.0639542
0.0346427
0.436882
0.515114
0.15888
-0.0321779
0.249115
0.502152
0.340244
0.185049
0.394963
0.513266
0.172035
-0.0977555
0.179309
0.517685
0.395169
0.205303
0.389918
0.519114
0.177865
-0.119217
0.14229
0.504118
0.426845
0.26418
0.421795
0.484435
0.123939
-0.11798
0.150649
0.42474
0.316236
0.235223
0.498455
0.199848
-0.336874
-0.279944
0.294899
0.488016
-0.00334665
-0.410773
-0.0963366
0.449162
0.368045
-0.215145
-0.37994
0.136579
0.515884
0.153761
-0.375734
-0.231293
0.357193
0.455078
-0.0910285
-0.414766
-0.00877306
0.481219
0.288398
-0.274754
-0.332444
0.184956
0.465166
0.0926234
-0.329826
-0.13834
0.365147
0.373152
-0.168284
-0.446666
-0.0225193
0.5246
0.601029
0.498713
0.593607
0.507869
-0.0390066
-0.411065
-0.0548367
0.509087
0.615211
0.515919
0.609338
0.528422
-0.019299
-0.402373
-0.0626313
0.487128
0.598749
0.524705
0.617587
0.49869
-0.0208587
-0.270513
0.0780672
0.326032
0.0860165
0.11473
0.502049
0.403763
0.0441251
0.0747151
0.463411
0.584521
0.239773
-0.0346777
0.189583
0.567014
0.510174
0.108036
-0.0044513
0.353829
0.616767
0.366583
0.00147012
0.10319
0.51053
0.577274
0.200406
-0.0209136
0.260486
0.598703
0.468369
0.0834881
0.0411784
0.392785
0.593572
0.354245
0.0640522
0.172446
0.503728
0.514685
0.125539
-0.0963745
0.19372
0.503523
0.342432
0.113371
0.30205
0.509352
0.268131
0.0151471
0.242889
0.514575
0.323055
0.0850837
0.289835
0.516262
0.289394
0.0477858
0.268651
0.508422
0.292511
0.0605157
0.266846
0.478172
0.301136
0.188419
0.421665
0.454483
0.0825593
0.2104
0.461866
0.547447
0.523633
0.530946
0.538463
0.509814
0.499059
0.523642
0.531485
0.511966
0.506475
0.523307
0.530559
0.517849
0.508792
0.517891
0.530202
0.526424
0.511443
0.507531
0.522172
0.533983
0.522202
0.50315
0.509768
0.53475
0.534745
0.511777
0.519937
0.550578
0.52131
0.444513
0.452426
0.534544
0.522022
0.475181
0.555218
0.484671
0.00511405
-0.356692
-0.0466606
0.49497
0.607496
0.504665
0.593825
0.529745
-0.00322549
-0.396811
-0.0665671
0.496626
0.611533
0.511399
0.604468
0.535353
-0.0006993
-0.39259
-0.0774962
0.465274
0.599258
0.530517
0.600063
0.559055
0.280784
0.300756
0.171132
0.252087
0.491209
0.495242
0.15853
-0.0174445
0.286155
0.600788
0.400803
-0.00593162
0.0382758
0.465171
0.588026
0.209712
-0.0647904
0.201049
0.58264
0.472472
0.0435644
-0.0268235
0.371651
0.608714
0.308032
-0.0590234
0.0834999
0.508528
0.546195
0.150167
-0.039445
0.255806
0.518256
0.332539
0.0614957
0.132477
0.339042
0.418711
0.486451
0.458728
0.119254
-0.152584
0.101945
0.489729
0.451896
0.283152
0.430304
0.52517
0.160716
-0.158998
0.107878
0.507321
0.44289
0.246914
0.399437
0.526374
0.19585
-0.119543
0.119063
0.50724
0.455429
0.199351
0.229159
0.435808
0.483307
0.265722
-0.0478096
0.00480139
0.330186
0.341792
-0.116325
-0.352083
0.067013
0.493923
0.21492
-0.341473
-0.275279
0.313773
0.479639
-0.0446038
-0.421016
-0.050246
0.476788
0.323533
-0.265422
-0.357409
0.191503
0.512919
0.0994224
-0.396877
-0.19598
0.381648
0.42388
-0.129407
-0.405374
0.000409048
0.423442
0.264799
-0.112624
-0.183591
-0.0956766
-0.0632477
0.123859
0.431758
0.496089
0.423001
0.525349
0.507118
0.0559927
-0.296116
0.00232098
0.499001
0.551801
0.417583
0.53405
0.540321
0.0643671
-0.327069
-0.0332854
0.494492
0.577358
0.434872
0.52494
0.561305
0.150179
-0.304364
-0.207814
0.28409
0.586192
0.146435
0.114872
0.263938
0.486395
0.486814
0.182311
0.0190545
0.300962
0.596819
0.406872
0.0212857
0.0679979
0.478135
0.591863
0.227223
-0.0310472
0.227752
0.59068
0.484495
0.0826531
0.0228184
0.397878
0.615117
0.333652
-0.000475991
0.140274
0.532767
0.552943
0.164573
-0.0256764
0.260516
0.563394
0.474155
0.216566
0.083538
-0.0255334
-0.115391
0.0790285
0.439862
0.540963
0.474046
0.559854
0.518776
0.0492634
-0.312268
-0.0117544
0.494626
0.552404
0.412575
0.525003
0.541553
0.0833811
-0.298972
-0.0121264
0.493475
0.545269
0.380056
0.47388
0.542503
0.185729
-0.202579
-0.0736889
0.347859
0.51834
-0.00476587
0.380072
0.575235
0.517965
0.487938
0.530301
0.53595
0.509947
0.51078
0.528201
0.530178
0.520967
0.515168
0.515959
0.523427
0.529556
0.521452
0.507682
0.512219
0.531683
0.533319
0.511252
0.501265
0.520232
0.536445
0.524722
0.504717
0.498718
0.507606
0.525762
0.523968
0.470842
0.430057
0.488971
0.536813
0.421399
0.308905
0.416425
0.482372
0.189219
-0.0859658
0.139752
0.499943
0.442023
0.260316
0.412859
0.530881
0.176718
-0.163551
0.084207
0.499917
0.46867
0.286793
0.429411
0.53035
0.159156
-0.191954
0.0473698
0.47647
0.496833
0.342133
0.430293
0.494733
0.239787
0.00171756
0.46287
0.451204
0.0482823
0.0141397
0.419369
0.581434
0.239211
-0.0454629
0.186178
0.567979
0.49528
0.0785681
-0.0266715
0.348352
0.610673
0.339124
-0.0401736
0.0751836
0.502342
0.558462
0.151254
-0.0726404
0.238658
0.585272
0.41845
0.00396662
-0.0197656
0.370363
0.581853
0.30202
-0.0843457
-0.0627438
0.330767
0.593821
0.504341
0.418549
0.55969
0.518757
0.0105452
-0.390979
-0.0911488
0.479289
0.618379
0.509831
0.593455
0.55231
0.0325733
-0.391672
-0.0941061
0.477668
0.61088
0.502783
0.589835
0.54413
0.0315875
-0.362616
-0.0613081
0.459567
0.555528
0.472824
0.581199
0.508318
0.0206504
0.299238
0.540525
0.260196
-0.314772
-0.306263
0.267197
0.471487
-0.0195884
-0.415355
-0.0849829
0.451644
0.349632
-0.230943
-0.374581
0.147629
0.510654
0.137151
-0.381374
-0.221032
0.36236
0.438308
-0.113467
-0.414103
0.00810067
0.475814
0.252438
-0.300708
-0.328192
0.18962
0.45786
0.0900226
-0.367057
-0.27225
0.226073
0.434697
0.148081
-0.0416954
0.243952
0.511964
0.29361
0.0200472
0.222048
0.508671
0.323008
0.0396474
0.22218
0.508801
0.345302
0.0883147
0.270812
0.515438
0.294371
0.0106292
0.21056
0.503585
0.356166
0.141857
0.330407
0.500874
0.218566
-0.0254353
0.223816
0.450745
0.193116
0.494293
0.623219
0.398984
-0.00316741
0.0397809
0.467071
0.591671
0.223663
-0.0481604
0.197533
0.573168
0.497952
0.0967166
0.000818127
0.361541
0.611633
0.35682
0.00245786
0.111665
0.509762
0.563001
0.19079
-0.0111555
0.271937
0.584391
0.441342
0.0845387
0.0642638
0.386749
0.55649
0.341694
0.0814781
0.173293
0.491256
0.480509
-0.0223661
-0.372204
-0.0511837
0.484044
0.594735
0.483368
0.578356
0.561124
0.0496245
-0.401428
-0.127787
0.459531
0.620097
0.51412
0.597036
0.558607
0.0307689
-0.407414
-0.112189
0.469182
0.617475
0.524651
0.608877
0.533326
0.000363316
-0.375039
-0.0514826
0.457442
0.520761
0.162723
0.379387
0.524236
0.496409
0.485466
0.529164
0.528585
0.499376
0.505789
0.524049
0.517871
0.51077
0.523063
0.529927
0.517431
0.510183
0.522296
0.533318
0.524161
0.508548
0.51064
0.529927
0.537494
0.514217
0.490155
0.510748
0.552751
0.536559
0.474086
0.477513
0.549524
0.556063
0.513494
0.566384
0.555621
0.234534
-0.0626979
0.131233
0.496814
0.466838
0.27054
0.394367
0.539803
0.231725
-0.116123
0.0959146
0.497259
0.445315
0.218021
0.35756
0.532469
0.238688
-0.0919239
0.130024
0.50492
0.416374
0.182088
0.328621
0.514114
0.264946
-0.0215906
0.167997
0.51188
0.513834
-0.265757
-0.0405612
0.347879
0.557373
0.416575
0.0859162
-0.00134219
0.315538
0.582396
0.367157
-0.0100506
0.0540454
0.467659
0.570807
0.196492
-0.0574778
0.212063
0.574088
0.452449
0.0412759
-0.00938305
0.37748
0.584191
0.275437
-0.0642675
0.100374
0.496401
0.472723
0.0723002
-0.0440052
0.270936
0.421792
0.177917
0.0772871
0.340523
0.500664
0.433559
0.494162
0.531516
0.144524
-0.272646
-0.0709512
0.446297
0.570208
0.434638
0.529414
0.573749
0.121619
-0.328743
-0.0891431
0.463501
0.587331
0.453401
0.548403
0.563987
0.086053
-0.353325
-0.0950606
0.468893
0.617543
0.475268
0.491684
0.523169
0.265252
-0.0969164
-0.0310242
0.252914
0.435172
0.225732
-0.220053
-0.318498
0.127289
0.479396
0.167815
-0.348349
-0.252892
0.312413
0.44921
-0.062854
-0.410198
-0.0455255
0.450053
0.292845
-0.265471
-0.346228
0.169032
0.458062
0.0582609
-0.396059
-0.192156
0.316559
0.284794
-0.221799
-0.353455
0.0393501
0.178762
-0.189573
-0.314689
0.131177
0.490939
0.453024
0.46164
0.506397
0.146766
-0.287473
-0.106286
0.424453
0.552835
0.383995
0.461809
0.551089
0.162739
-0.268524
-0.0555169
0.457387
0.539611
0.37034
0.468978
0.545814
0.149465
-0.249411
-0.0187498
0.466356
0.524058
0.3288
0.365633
0.471204
0.269254
0.372953
0.368488
0.454839
0.499572
0.371813
0.125818
0.0786351
0.362963
0.589348
0.379322
0.0293584
0.0924834
0.477684
0.573725
0.224929
-0.017524
0.224354
0.567197
0.474071
0.0922295
0.0164647
0.360489
0.580607
0.323113
-0.00345462
0.123084
0.480067
0.450728
0.0801115
0.0150452
0.329996
0.38999
0.0548131
-0.0202113
0.325612
0.400872
0.0719971
0.0601968
0.427819
0.484621
0.257473
0.333222
0.53097
0.265884
-0.155052
-0.015941
0.444383
0.50501
0.307726
0.404398
0.538235
0.201382
-0.19397
0.00625582
0.464309
0.504893
0.332228
0.437443
0.519876
0.153034
-0.213274
-0.0100254
0.435709
0.53361
0.316885
0.477176
0.515932
0.42683
0.430189
0.524233
0.55003
0.506132
0.50002
0.530604
0.534719
0.514145
0.511982
0.532084
0.540801
0.523574
0.504666
0.519378
0.54963
0.539521
0.496365
0.501191
0.558942
0.554724
0.477014
0.476545
0.568724
0.542885
0.384239
0.389391
0.573223
0.56559
0.344205
0.362684
0.591912
0.400102
-0.151373
-0.185278
0.36716
0.653992
0.525542
0.533223
0.585815
0.189352
-0.307738
-0.156133
0.416057
0.624897
0.509551
0.568906
0.581744
0.119094
-0.342569
-0.117706
0.442531
0.602082
0.492263
0.56517
0.543592
0.0840533
-0.284837
-0.0179847
0.451967
0.536549
-0.134097
0.227282
0.273302
0.0281152
0.0700118
0.418287
0.495498
0.159226
-0.0440876
0.214382
0.534564
0.425304
0.0687541
0.0260247
0.361072
0.546899
0.294792
0.0147687
0.146244
0.459882
0.454172
0.174801
0.0834203
0.263884
0.375982
0.288656
0.200388
0.174519
0.128898
0.145388
0.250066
0.222081
0.055358
0.127808
0.434795
0.40877
0.0192964
-0.0202619
0.350652
0.407544
0.125863
0.152385
0.444017
0.406777
0.14889
0.243264
0.499903
0.340109
0.0253516
0.165841
0.494617
0.401115
0.140068
0.277622
0.514653
0.300254
-0.0132267
0.155546
0.475062
0.392141
0.209203
0.359139
0.462939
0.162632
-0.129941
0.240689
0.216225
-0.161779
-0.16065
0.260038
0.356421
-0.0833916
-0.360025
-0.0275221
0.395527
0.253748
-0.224817
-0.296031
0.139776
0.398595
0.0822165
-0.297993
-0.15403
0.252734
0.271405
-0.0842494
-0.229351
-0.0165996
0.137168
0.0382592
-0.0677016
-0.0759792
-0.119371
-0.140283
-0.042321
-0.0333939
-0.214966
-0.212564
0.152847
0.425703
0.354028
0.324157
0.400566
0.14641
-0.269251
-0.190783
0.307336
0.557106
0.498301
0.557664
0.55867
0.0901413
-0.391326
-0.18235
0.402359
0.597098
0.487332
0.564875
0.572285
0.0792624
-0.399748
-0.166574
0.40978
0.586267
0.486949
0.534595
0.458629
-0.00793585
0.332091
0.57473
0.494744
0.12419
0.0933964
0.445391
0.555367
0.229562
0.00849988
0.240901
0.549454
0.461068
0.12151
0.051943
0.346081
0.546398
0.342668
0.0591855
0.13684
0.427497
0.455686
0.19772
0.0887638
0.248689
0.356225
0.271049
0.207728
0.240412
0.211
0.161785
0.237738
0.290122
0.150365
0.0666269
0.264027
0.48382
0.501267
0.507261
0.513495
0.258047
-0.0453032
0.076095
0.433635
0.457195
0.254616
0.344639
0.522062
0.264495
-0.0953248
0.0741084
0.479057
0.448793
0.194665
0.313263
0.535833
0.286088
-0.0745414
0.10058
0.484199
0.419065
0.152458
0.25329
0.473303
0.326528
0.400003
0.593854
0.601537
0.345144
0.275238
0.496612
0.635333
0.520285
0.39434
0.4497
0.577137
0.596479
0.493957
0.427393
0.504173
0.620059
0.578308
0.427981
0.425519
0.589508
0.636639
0.466818
0.376522
0.518324
0.634643
0.529546
0.40524
0.466841
0.571358
0.55676
0.496377
0.492091
0.518255
0.54589
0.522895
0.379181
0.262687
0.386328
0.553859
0.450019
0.307854
0.478075
0.636646
0.289595
-0.192348
-0.0687363
0.440139
0.5778
0.420105
0.500452
0.60802
0.233851
-0.244261
-0.0900552
0.438748
0.581575
0.444494
0.537754
0.60258
0.189951
-0.251414
-0.0545303
0.47391
0.629429
-0.051531
0.214531
0.373229
0.196716
0.0451793
0.138996
0.295332
0.320358
0.236849
0.15989
0.182447
0.286531
0.321558
0.237776
0.199284
0.297261
0.331742
0.201361
0.156809
0.334218
0.426741
0.214427
0.0490957
0.249085
0.493006
0.3438
0.031362
0.077599
0.405093
0.488082
0.205717
0.0172029
0.232044
0.555275
0.487778
0.0469021
-0.171015
0.136417
0.456477
0.309807
0.0933226
0.315285
0.583372
0.268732
-0.259563
-0.166222
0.371074
0.532179
0.331143
0.361664
0.517762
0.261271
-0.171198
-0.0857237
0.365048
0.497514
0.376283
0.454761
0.51382
0.176671
-0.160935
0.0299974
0.416965
0.413851
-0.169651
0.121023
0.310148
0.159826
-0.0253386
-0.010961
0.105127
0.148852
0.0787471
-0.0252386
-0.0295209
0.0762006
0.114037
0.0200779
-0.0135212
0.10152
0.11564
-0.0672296
-0.113499
0.137326
0.264493
-0.0285372
-0.281832
-0.0309099
0.333893
0.173628
-0.278354
-0.275704
0.188753
0.359947
-0.0524788
-0.399633
-0.124177
0.388789
0.389677
-0.0975952
-0.289251
0.121453
0.439614
0.11832
-0.28823
-0.0663031
0.43336
0.434845
0.0941282
0.11761
0.391618
0.264844
-0.130084
-0.10692
0.306454
0.465473
0.295317
0.284754
0.403061
0.224777
-0.05888
0.020669
0.278069
0.304328
0.245815
0.362093
0.380674
0.0553002
0.285203
0.415766
0.501598
0.448251
0.366446
0.327893
0.337606
0.377662
0.387162
0.322036
0.271621
0.321842
0.366352
0.31403
0.281129
0.355962
0.365919
0.224536
0.179202
0.369975
0.479212
0.255952
0.0395827
0.215699
0.513276
0.416579
0.0642731
0.0367835
0.389052
0.547943
0.24679
-0.043549
0.125829
0.498053
0.520491
0.202939
0.0968933
0.397798
0.591334
0.290722
-0.0728247
0.0661
0.479691
0.587444
0.442141
0.459354
0.519511
0.248414
-0.128979
-0.0764331
0.341113
0.576643
0.523593
0.525015
0.535292
0.247809
-0.0925974
-0.032085
0.280558
0.447619
0.478986
0.527696
0.439045
0.136922
0.531743
0.356213
0.35382
0.540052
0.634442
0.479912
0.331286
0.446097
0.642164
0.594594
0.394547
0.390353
0.574157
0.630083
0.488482
0.41668
0.519836
0.598679
0.535778
0.469713
0.509497
0.558934
0.534317
0.497167
0.51508
0.542942
0.532842
0.511192
0.516131
0.535666
0.541435
0.531565
0.510682
0.495366
0.500476
0.511555
0.510063
0.5046
0.494455
0.465278
0.453799
0.481276
0.464124
0.389719
0.417319
0.554954
0.547012
0.338429
0.238368
0.405864
0.552858
0.402317
0.209199
0.348314
0.58014
0.460606
0.20187
0.268094
0.519845
0.536825
0.349815
0.295741
0.406596
0.465704
0.28971
-0.145912
-0.138721
0.299678
0.496158
0.156894
-0.149576
0.0860428
0.482827
0.39564
-0.015776
-0.0554479
0.342411
0.523436
0.201163
-0.0732669
0.160497
0.526444
0.439782
0.0536981
0.000752546
0.368894
0.578089
0.303354
-0.0111118
0.136863
0.516345
0.52657
0.147284
-0.0213383
0.294417
0.605369
0.418679
0.0273618
0.0484725
0.429566
0.540242
0.196432
-0.0540644
0.189776
0.576015
0.538296
0.11439
-0.10922
0.148516
0.441661
0.320358
0.0739484
0.215576
0.58365
0.562983
0.053457
-0.28171
0.0205435
0.47249
0.428508
0.143557
0.231758
0.549781
0.492828
0.0498058
-0.160262
0.145936
0.527176
0.195449
-0.253848
-0.200477
0.280145
0.440127
0.0144123
-0.329813
-0.048784
0.392759
0.260669
-0.240809
-0.29332
0.191077
0.41778
0.00408894
-0.379057
-0.101604
0.395968
0.30409
-0.237774
-0.355104
0.150387
0.474436
0.0925183
-0.388134
-0.197026
0.367552
0.405669
-0.149238
-0.418864
0.0250487
0.480504
0.226739
-0.318644
-0.269141
0.300766
0.479777
-0.0152879
-0.402551
-0.0794317
0.458973
0.404507
-0.133827
-0.317683
0.112459
0.442529
0.150741
-0.250723
-0.0743361
0.426497
0.464768
-0.0461491
-0.33881
0.0206495
0.442375
0.264702
-0.160581
-0.0786845
0.387808
0.460582
-0.0125462
-0.319135
-0.00263822
0.443068
0.435507
0.253777
0.29639
0.526316
0.581432
0.337673
0.152429
0.319961
0.571518
0.47717
0.160673
0.124733
0.433319
0.580071
0.301376
0.029946
0.20538
0.549795
0.493733
0.107564
0.00624686
0.35873
0.598299
0.326583
-0.0308678
0.0981199
0.512152
0.549267
0.147051
-0.0558495
0.261882
0.591069
0.404224
0.00732562
0.0463938
0.466653
0.607444
0.258474
-0.0277718
0.181108
0.541203
0.492289
0.136585
0.0661068
0.408695
0.614627
0.335769
-0.0190805
0.0715674
0.444841
0.537115
0.268385
0.129193
0.363737
0.570977
0.346644
-0.0249763
0.0247272
0.42894
0.583203
0.30109
0.0655674
0.249086
0.541342
0.415347
0.616929
0.57827
0.398153
0.366328
0.51134
0.598334
0.520653
0.433334
0.473146
0.560464
0.558833
0.492244
0.477122
0.525319
0.550875
0.523069
0.500927
0.516442
0.533668
0.52569
0.516015
0.523029
0.527137
0.518167
0.514227
0.525258
0.531953
0.522668
0.514632
0.523072
0.532958
0.523613
0.508758
0.50927
0.515179
0.513827
0.517073
0.526349
0.520568
0.499615
0.490215
0.504726
0.52264
0.518456
0.498448
0.486443
0.482719
0.474599
0.468427
0.485402
0.529878
0.555169
0.519304
0.466406
0.44277
0.436292
0.44944
0.484714
0.515962
0.5303
0.524313
0.512125
0.519989
0.0535095
0.521349
0.394554
-0.114639
-0.195526
0.279217
0.567296
0.240097
-0.151751
0.0260665
0.488545
0.505174
0.071133
-0.100017
0.269283
0.589829
0.361166
-0.0315307
0.0494898
0.475396
0.570392
0.19451
-0.0423952
0.239607
0.593043
0.459097
0.0546301
0.0235225
0.414682
0.607379
0.298227
-0.0178652
0.162827
0.553736
0.529377
0.115818
-0.041646
0.306
0.611967
0.397066
0.0120274
0.0728884
0.473243
0.55781
0.175145
-0.0736947
0.211986
0.59831
0.501938
0.0964036
0.024751
0.381365
0.560863
0.245379
-0.0542158
0.163669
0.573055
0.556371
0.162292
0.0107033
0.325785
0.585518
0.373517
0.054639
0.00790137
0.481831
0.3357
-0.222811
-0.314767
0.207393
0.509177
0.0953497
-0.386192
-0.170834
0.396009
0.401541
-0.169318
-0.402789
0.0760544
0.498686
0.184259
-0.362661
-0.263563
0.324053
0.459018
-0.0746876
-0.422108
-0.0268087
0.481964
0.293038
-0.292353
-0.342091
0.222179
0.501056
0.0506865
-0.40998
-0.14541
0.428891
0.405715
-0.177689
-0.398982
0.0893592
0.509278
0.195512
-0.342056
-0.236547
0.344986
0.470065
-0.0679279
-0.421188
-0.0305505
0.495752
0.341651
-0.234594
-0.313903
0.218084
0.487188
0.0474227
-0.389159
-0.106713
0.462886
0.429459
-0.153282
-0.371018
0.108229
0.504547
0.179498
-0.339125
0.378964
0.604865
0.536853
0.254466
0.200514
0.469396
0.623439
0.379004
0.0937251
0.219963
0.561322
0.556298
0.185321
0.0285411
0.338912
0.61596
0.397904
0.0180636
0.0811608
0.487624
0.580613
0.200006
-0.0521624
0.22669
0.591171
0.455619
0.0326914
-0.00423842
0.403998
0.605661
0.27792
-0.0580216
0.131538
0.547177
0.535385
0.122953
-0.0312404
0.31695
0.609301
0.375233
-0.0129762
0.0665339
0.490329
0.589908
0.215723
-0.0367344
0.226288
0.579591
0.45079
0.0345622
-0.00345523
0.406663
0.617131
0.299523
-0.0365367
0.137028
0.532892
0.505171
0.0800202
-0.0680298
0.3079
0.613705
0.3537
-0.0721918
0.501732
0.352067
0.411596
0.577513
0.594085
0.461261
0.403469
0.497035
0.581639
0.541848
0.466835
0.475289
0.536707
0.552377
0.515632
0.495423
0.51417
0.532054
0.526236
0.517323
0.519565
0.521337
0.517474
0.519223
0.526936
0.525333
0.514299
0.512842
0.525715
0.532202
0.521341
0.510569
0.514528
0.523241
0.523053
0.51755
0.517363
0.523359
0.525299
0.516819
0.507889
0.509641
0.515881
0.51866
0.521766
0.52403
0.520552
0.514902
0.506001
0.494955
0.499009
0.519056
0.530282
0.522356
0.507764
0.504117
0.515824
0.516657
0.492262
0.48376
0.521062
0.555559
0.525357
0.463059
0.235103
-0.22196
-0.0735911
0.442549
0.508711
0.0399069
-0.19527
0.184031
0.578065
0.378925
-0.0709138
-0.0441789
0.415857
0.584298
0.213685
-0.0875291
0.164214
0.568315
0.490673
0.0697627
-0.0163099
0.369631
0.615432
0.337165
-0.0158479
0.11926
0.527257
0.560958
0.169125
-0.0246122
0.288247
0.612202
0.43194
0.0307643
0.0437951
0.44878
0.599653
0.256055
-0.0330659
0.194525
0.57797
0.506303
0.0884646
-0.0158097
0.358074
0.614458
0.348312
-0.00663508
0.121363
0.527939
0.565121
0.170889
-0.0323597
0.277119
0.607064
0.439872
0.0615577
0.0897023
0.479562
0.608496
0.276442
0.019435
0.246069
0.590563
0.186724
-0.323699
-0.176157
0.38583
0.449024
-0.101287
-0.389141
0.0461076
0.506064
0.247441
-0.323924
-0.298307
0.282855
0.489729
-0.0109815
-0.420835
-0.085509
0.460185
0.345097
-0.24728
-0.37215
0.169743
0.515519
0.11509
-0.393078
-0.199933
0.387315
0.434606
-0.13345
-0.414552
0.0379834
0.506928
0.249087
-0.32471
-0.301919
0.280628
0.494564
-0.00132206
-0.417012
-0.0891261
0.46408
0.365728
-0.228326
-0.376362
0.153527
0.513855
0.130613
-0.378806
-0.195176
0.392429
0.447854
-0.121978
-0.41616
0.0310759
0.507743
0.257914
-0.309782
-0.279213
0.301123
0.496378
-0.0125323
-0.413146
-0.0636648
0.476447
0.459674
0.203341
0.27385
0.563936
0.593784
0.284362
0.113275
0.356274
0.621513
0.460054
0.103061
0.113659
0.478251
0.6049
0.268361
-0.00960157
0.213844
0.582268
0.497247
0.0806653
-0.00903496
0.371744
0.614251
0.325543
-0.0399083
0.0984648
0.520746
0.553934
0.14332
-0.0597554
0.266857
0.604645
0.418219
0.00576556
0.0245166
0.445369
0.599038
0.241265
-0.0591438
0.174681
0.571345
0.502059
0.0784882
-0.0247905
0.356827
0.614133
0.334538
-0.038546
0.0881813
0.512285
0.557011
0.14907
-0.0625224
0.260883
0.603052
0.408655
-0.024792
-0.00940757
0.429609
0.581605
0.189827
-0.125312
0.142585
0.563275
0.445964
0.599993
0.556062
0.416321
0.413469
0.538552
0.590203
0.507621
0.439791
0.486184
0.55925
0.551532
0.496468
0.485783
0.522102
0.541377
0.524541
0.509165
0.514955
0.523255
0.521911
0.521024
0.524078
0.521072
0.513656
0.515891
0.526806
0.528503
0.517168
0.511061
0.520132
0.529332
0.523386
0.511647
0.512692
0.524623
0.528776
0.519656
0.51189
0.515906
0.523403
0.521798
0.513604
0.513042
0.523573
0.530065
0.520667
0.506278
0.50689
0.521644
0.527813
0.516241
0.507171
0.518579
0.533857
0.519101
0.482792
0.482698
0.531791
0.55603
0.509084
0.46134
0.495525
0.56352
0.0780668
0.537177
0.384024
-0.112864
-0.14298
0.344173
0.578387
0.208081
-0.152963
0.0774862
0.531734
0.498347
0.053401
-0.0801561
0.311117
0.608498
0.353766
-0.0328391
0.0677112
0.495416
0.57657
0.19241
-0.0409512
0.247196
0.600286
0.462011
0.0556845
0.0271622
0.421798
0.614257
0.29988
-0.0223252
0.158764
0.555187
0.53666
0.131775
-0.0163917
0.328338
0.618619
0.39246
0.00879132
0.0776205
0.489135
0.58838
0.218235
-0.0311789
0.236471
0.593892
0.473877
0.0720885
0.0320952
0.419185
0.616682
0.312214
-0.00142393
0.179577
0.564359
0.546517
0.174008
0.0561856
0.383011
0.630688
0.411557
0.0922502
0.0181275
0.504058
0.312164
-0.267425
-0.31438
0.243028
0.508138
0.0502687
-0.400917
-0.124801
0.434558
0.377991
-0.208232
-0.389336
0.123673
0.513274
0.158094
-0.376608
-0.240089