# vtk DataFile Version 3.0
PFC-RG simulation results
ASCII
DATASET STRUCTURED_POINTS
DIMENSIONS 64 64 1
ORIGIN 0 0 0
SPACING 1 1 1
POINT_DATA 4096
SCALARS psi double
LOOKUP_TABLE default
0.493282
0.535513
0.516663
0.455856
0.478013
0.538796
0.537764
0.502089
0.506035
0.536134
0.538897
0.51246
0.510162
0.54457
0.554096
0.509016
0.48634
0.549183
0.589818
0.514329
0.444743
0.525378
0.620256
0.545968
0.4392
0.502766
0.621576
0.564251
0.42491
0.446678
0.582644
0.60721
0.514857
0.470566
0.500365
0.512583
0.47911
0.44332
0.442157
0.468429
0.513809
0.549662
0.414695
0.0773538
-0.0650735
0.235007
0.565371
0.561029
0.502355
0.613328
0.49672
-0.0406747
-0.356348
0.0218707
0.545223
0.614674
0.51302
0.592284
0.506029
0.0256718
-0.302802
-0.0311554
0.45088
0.614768
0.0116103
0.0442163
0.305199
0.539352
0.456406
0.124784
0.00685941
0.305119
0.578714
0.393898
0.0346951
0.065442
0.438652
0.567653
0.251051
-0.0207066
0.165798
0.516547
0.486561
0.133677
0.00536496
0.277964
0.501516
0.365227
0.15967
0.18763
0.307353
0.316023
0.324232
0.395869
0.330477
0.136486
0.152813
0.410822
0.476537
0.232078
0.136389
0.402726
0.581273
0.321538
0.0150872
0.152427
0.446363
0.373869
0.170827
0.287857
0.455826
0.308595
0.179253
0.384091
0.499055
0.180667
-0.0673276
0.200057
0.506764
0.365758
0.172206
0.348699
0.510829
0.265345
-0.0190848
0.101829
0.416184
0.487669
-0.302503
-0.282822
0.0938575
0.449795
0.31349
-0.194501
-0.359892
0.091479
0.479047
0.183784
-0.340093
-0.266839
0.286955
0.446569
-0.0334887
-0.393941
-0.0810581
0.400442
0.298759
-0.202796
-0.316438
0.0995957
0.370336
0.12252
-0.187051
-0.132776
0.0782781
0.140674
0.141168
0.149451
-0.0208409
-0.266716
-0.152196
0.273894
0.377204
0.0158537
-0.128229
0.259755
0.498193
0.0756052
-0.395142
-0.166891
0.406277
0.569835
0.443133
0.478747
0.417699
-0.034277
-0.336351
0.00410875
0.500396
0.556482
0.447358
0.554421
0.502268
-0.00109097
-0.353429
-0.0262762
0.503152
0.600919
0.43105
0.409142
0.46494
0.324896
0.0306108
0.0421258
0.286089
0.525393
0.451647
0.118908
0.00715988
0.324191
0.596109
0.37656
-0.00145239
0.0629891
0.469548
0.574698
0.219081
-0.0264826
0.22055
0.561133
0.460056
0.0958461
0.0511939
0.376647
0.543831
0.314901
0.0878326
0.173431
0.355026
0.37358
0.329437
0.312231
0.175433
-0.0045561
0.119799
0.484419
0.518479
0.0935587
-0.118491
0.247659
0.546935
0.245426
-0.120807
0.0835998
0.483027
0.462682
0.295391
0.438366
0.512193
0.117546
-0.206429
0.0807687
0.511247
0.498547
0.355001
0.494048
0.521528
0.091452
-0.233447
0.0604208
0.495157
0.488556
0.304897
0.372204
0.515075
0.427451
0.429743
0.521663
0.513521
0.445331
0.465959
0.531293
0.540238
0.519783
0.521246
0.525028
0.518083
0.520035
0.52849
0.523956
0.515512
0.524657
0.537434
0.52841
0.507221
0.513717
0.54718
0.55337
0.508699
0.478331
0.528974
0.582159
0.528746
0.437056
0.47624
0.587709
0.54232
0.386318
0.411
0.608603
0.563164
0.154053
-0.0732803
0.247182
0.61311
0.545526
0.397357
0.530595
0.540256
0.0989777
-0.217948
0.110543
0.562529
0.526583
0.353171
0.486152
0.520316
0.0943946
-0.222763
0.0873502
0.519534
0.492
0.345269
0.482687
0.498152
0.0822135
-0.199817
0.0865503
0.469936
0.49892
0.266992
0.553473
0.373505
-0.0188897
0.0401297
0.467386
0.585084
0.224182
-0.0390253
0.201623
0.570597
0.496615
0.0936137
-0.0129743
0.342521
0.602482
0.357261
-0.00812252
0.0756641
0.471198
0.557683
0.206133
-0.040309
0.182946
0.529912
0.487648
0.131571
-0.0326645
0.209249
0.50628
0.46639
0.20054
0.104682
0.271488
0.350218
0.133064
-0.00863807
0.245062
0.510778
0.432779
0.362197
0.546637
0.511275
-0.00692459
-0.348596
0.0113541
0.522704
0.559979
0.445501
0.572813
0.522533
-0.00569627
-0.363037
-0.0115689
0.505279
0.564022
0.471081
0.587478
0.500734
-0.00780334
-0.266366
0.0904042
0.390691
0.216714
-0.0501962
0.40631
0.213237
-0.308876
-0.252371
0.307761
0.461262
-0.0450314
-0.417246
-0.0724472
0.456359
0.347496
-0.23037
-0.374553
0.140575
0.504057
0.143085
-0.370062
-0.228268
0.33682
0.433656
-0.0777246
-0.391869
-0.0393655
0.41966
0.300297
-0.186066
-0.329564
0.0387732
0.386283
0.261043
-0.139629
-0.299666
-0.0391322
0.283308
0.314297
0.260362
0.394733
0.400782
0.0463712
-0.148787
0.179791
0.500275
0.34625
0.156849
0.357295
0.492132
0.166091
-0.0844645
0.206911
0.52489
0.365225
0.167388
0.367103
0.503714
0.185868
-0.0520978
0.224226
0.494068
0.333939
0.226768
0.453258
0.409437
-0.0997424
0.115494
0.513432
0.393704
0.012352
0.0629876
0.474681
0.579738
0.211657
-0.0514417
0.198458
0.574368
0.495716
0.0872455
-0.0105173
0.357573
0.61283
0.353382
-0.00606261
0.104154
0.504388
0.562582
0.202049
0.00127722
0.259398
0.558996
0.454999
0.137733
0.0757017
0.331846
0.540715
0.407149
0.060184
-0.0943422
0.15406
0.500492
0.546246
0.449916
0.510711
0.433734
-0.0374979
-0.341114
0.0104684
0.520934
0.598169
0.509863
0.608708
0.506426
-0.0527812
-0.406168
-0.0281099
0.524116
0.611389
0.520221
0.618765
0.511939
-0.0460639
-0.389195
-0.0221628
0.491891
0.569133
0.518682
0.635873
0.510801
0.0368144
0.46016
0.564925
0.538383
0.46418
0.487908
0.541205
0.533648
0.506231
0.5113
0.524977
0.520527
0.513558
0.518218
0.525152
0.524299
0.518304
0.515887
0.52363
0.531267
0.521763
0.506296
0.518219
0.547713
0.537554
0.492857
0.496316
0.556814
0.563355
0.501088
0.500559
0.552903
0.494927
0.387867
0.461146
0.567124
0.388302
0.164769
0.301646
0.497941
0.309467
0.0906307
0.287056
0.510579
0.323869
0.129324
0.342118
0.519078
0.239838
-0.00737639
0.243327
0.518231
0.33507
0.126686
0.334634
0.51381
0.242815
-0.00121361
0.236481
0.512955
0.363086
0.150491
0.290738
0.495273
0.449471
0.334644
0.164937
0.272546
0.50528
0.471784
0.138662
0.00442352
0.31957
0.603635
0.386416
-0.00274323
0.0567124
0.474306
0.586794
0.21537
-0.0525802
0.20419
0.579334
0.480398
0.0599742
-0.0237245
0.361365
0.607576
0.31898
-0.0518006
0.0865423
0.510217
0.530085
0.129094
-0.0207333
0.299099
0.555908
0.475875
0.37418
0.300178
0.00772982
-0.232174
0.0307121
0.492239
0.593945
0.510987
0.585624
0.486969
-0.0361944
-0.376158
-0.0200657
0.513132
0.592323
0.490324
0.592441
0.51776
-0.0193576
-0.387231
-0.0399432
0.508575
0.604526
0.488196
0.566316
0.54122
0.103139
-0.304067
-0.155851
0.334593
0.615625
-0.0641597
-0.243901
0.0281795
0.424211
0.348564
-0.170658
-0.368918
0.0925945
0.503332
0.197259
-0.351633
-0.267525
0.320213
0.477725
-0.0453659
-0.420008
-0.0549572
0.471481
0.328418
-0.257241
-0.361795
0.177272
0.503727
0.0978315
-0.391488
-0.182222
0.37843
0.37683
-0.164457
-0.347871
0.0884432
0.432974
0.317892
0.169694
0.159727
0.0280335
-0.0798812
0.158775
0.452152
0.392288
0.276655
0.448224
0.502245
0.107059
-0.187107
0.110922
0.511643
0.457509
0.29877
0.457442
0.521333
0.117997
-0.202166
0.088152
0.514547
0.480429
0.287694
0.402728
0.528511
0.248481
-0.127992
-0.0782609
0.307437
0.515208
-0.0781155
-0.0624288
0.249796
0.560399
0.499756
0.125459
-0.0208854
0.305893
0.604688
0.39455
0.00612602
0.063191
0.477764
0.589873
0.222685
-0.0392839
0.218244
0.587026
0.486056
0.0784504
0.0107142
0.389825
0.613298
0.325094
-0.0105134
0.147044
0.534959
0.516599
0.140699
0.0405818
0.336539
0.489634
0.329897
0.273162
0.405726
0.437119
0.42456
0.52494
0.433186
-0.021952
-0.278154
0.0829107
0.534864
0.525608
0.39271
0.526254
0.519094
0.0493132
-0.285454
0.0417056
0.518688
0.530146
0.385421
0.511805
0.530695
0.0827083
-0.287816
-0.0185405
0.482231
0.575235
0.384274
0.360311
0.488385
0.461293
0.273068
0.414224
0.506263
0.492085
0.493738
0.5212
0.520809
0.510127
0.516341
0.524701
0.523227
0.519956
0.518754
0.51805
0.520732
0.525056
0.522578
0.515874
0.516833
0.524815
0.5273
0.522371
0.518555
0.517696
0.521295
0.530118
0.52567
0.498147
0.499177
0.557612
0.557727
0.409776
0.30978
0.455599
0.608985
0.52571
0.455246
0.567174
0.46645
-0.028089
-0.307142
0.0618952
0.535426
0.547933
0.429846
0.559176
0.522678
0.0154803
-0.337037
0.00354244
0.514671
0.562506
0.438199
0.552489
0.528687
0.0444369
-0.318544
-0.0223701
0.466159
0.534077
0.397018
0.465968
0.575731
0.463294
0.450948
0.582919
0.349625
-0.0344576
0.0237804
0.455181
0.599035
0.246804
-0.0429161
0.182075
0.568089
0.507077
0.0915447
-0.0236537
0.345792
0.61485
0.35396
-0.0243927
0.0803624
0.500172
0.566829
0.177114
-0.048806
0.241024
0.582067
0.440944
0.0445783
0.00111952
0.364429
0.57915
0.323827
-0.0251072
0.0535433
0.436493
0.496775
0.107179
-0.10374
0.208767
0.520027
0.392269
0.236094
0.426968
0.515628
0.143328
-0.137155
0.156476
0.519451
0.412753
0.228313
0.40636
0.517973
0.164916
-0.124897
0.148579
0.507403
0.418367
0.251216
0.413833
0.487922
0.139104
-0.101821
0.167207
0.461221
0.36955
0.312741
0.512633
0.188624
-0.342143
-0.277085
0.298389
0.488667
-0.00404203
-0.410407
-0.0945221
0.450275
0.366594
-0.217305
-0.379114
0.139966
0.516831
0.150774
-0.377032
-0.226878
0.361463
0.451997
-0.0963226
-0.411485
0.000305794
0.483291
0.285126
-0.269988
-0.324097
0.179697
0.458243
0.122546
-0.255006
-0.0566671
0.421311
0.411524
-0.133496
-0.419973
-0.00751085
0.529597
0.598804
0.496415
0.595623
0.509223
-0.0399759
-0.405997
-0.0427444
0.515419
0.611312
0.512688
0.609582
0.521811
-0.0309378
-0.402688
-0.0494358
0.498319
0.601445
0.525734
0.619872
0.5001
-0.0260695
-0.289787
0.070702
0.394029
0.236912
0.1508
0.50494
0.401568
0.0492888
0.0804987
0.465434
0.583693
0.237622
-0.0369738
0.18881
0.567155
0.50694
0.0998841
-0.0119182
0.351919
0.615628
0.358745
-0.0101985
0.0973295
0.510406
0.57223
0.187572
-0.0309
0.259042
0.597043
0.461596
0.0799459
0.0432069
0.390407
0.587825
0.363949
0.0948328
0.19925
0.512237
0.538675
0.19576
-0.00567073
0.253487
0.50295
0.296076
0.0639921
0.278139
0.510397
0.288175
0.0509675
0.275047
0.515836
0.296959
0.0641304
0.287887
0.516842
0.284271
0.0483961
0.276138
0.511034
0.293665
0.0737543
0.287345
0.487222
0.28626
0.149439
0.38801
0.484789
0.191082
0.147504
0.431731
0.554331
0.537474
0.5315
0.532368
0.507014
0.498456
0.521272
0.530309
0.515752
0.510298
0.520522
0.525276
0.519497
0.515948
0.519435
0.523571
0.522653
0.517183
0.513847
0.519518
0.527806
0.522625
0.507944
0.510887
0.533285
0.537634
0.520553
0.528286
0.550148
0.507734
0.415703
0.415006
0.51298
0.534839
0.510595
0.582205
0.479411
-0.0213644
-0.370166
-0.0376199
0.505346
0.610798
0.513732
0.604287
0.519553
-0.028099
-0.403148
-0.0484712
0.510418
0.609593
0.51068
0.607103
0.524726
-0.0185317
-0.391889
-0.0570386
0.482344
0.603494
0.530057
0.597344
0.549705
0.262155
0.233466
0.159029
0.27609
0.507965
0.491727
0.152289
-0.0136257
0.294015
0.602984
0.40036
3.94045e-06
0.0493266
0.472021
0.589641
0.21519
-0.0520052
0.212676
0.586642
0.475321
0.0537553
-0.0128606
0.380071
0.611714
0.313715
-0.0486805
0.0920562
0.511248
0.548729
0.161336
-0.0239768
0.259096
0.511365
0.342075
0.0922491
0.147325
0.312277
0.37711
0.466397
0.461904
0.140776
-0.107649
0.149688
0.499101
0.421035
0.253771
0.422197
0.519504
0.153692
-0.146114
0.135167
0.515773
0.431366
0.248112
0.415422
0.522733
0.166891
-0.139879
0.120769
0.512188
0.467049
0.247007
0.299546
0.460534
0.426066
0.288269
-0.00488574
0.0308118
0.329529
0.332179
-0.117842
-0.342668
0.0784269
0.49697
0.209981
-0.344481
-0.271208
0.31892
0.479264
-0.047887
-0.420744
-0.046326
0.478881
0.321993
-0.266771
-0.35583
0.19401
0.513644
0.099306
-0.39506
-0.192637
0.38205
0.421612
-0.125283
-0.393819
0.00603268
0.43313
0.325206
0.00272732
-0.0945879
-0.0926984
-0.0986607
0.118046
0.452888
0.520384
0.454623
0.554051
0.498903
0.0164803
-0.317299
0.0160475
0.513881
0.552781
0.42571
0.546848
0.527834
0.0354931
-0.326331
3.42117e-05
0.511863
0.562034
0.421891
0.525167
0.543422
0.121438
-0.281445
-0.120669
0.356106
0.587759
0.225263
0.182544
0.271772
0.464158
0.474293
0.182355
0.0222189
0.304954
0.598231
0.400008
0.00902243
0.0602759
0.477381
0.589171
0.215839
-0.04543
0.220158
0.58903
0.478969
0.0695897
0.0102233
0.393037
0.613653
0.327709
-0.0088686
0.136401
0.53133
0.549183
0.165627
-0.0151561
0.263682
0.555875
0.501058
0.303317
0.172241
0.012018
-0.0946427
0.119266
0.462505
0.517363
0.441716
0.547232
0.50611
0.0347934
-0.29602
0.0300373
0.51269
0.536505
0.403244
0.53113
0.527795
0.050437
-0.304997
0.0156622
0.510387
0.542191
0.397692
0.508831
0.53077
0.115891
-0.251131
-0.0525328
0.390791
0.544921
0.0437788
0.433555
0.581806
0.51025
0.495457
0.53825
0.532844
0.508244
0.517505
0.532198
0.524493
0.515733
0.519898
0.523448
0.521326
0.520738
0.52013
0.516379
0.517394
0.525515
0.526532
0.515291
0.509328
0.519631
0.530651
0.525405
0.508766
0.496364
0.506533
0.536126
0.524431
0.436731
0.390797
0.489658
0.563702
0.443982
0.341943
0.46111
0.486143
0.136545
-0.133093
0.137322
0.511321
0.448182
0.283679
0.4438
0.522881
0.135742
-0.176791
0.110596
0.513413
0.451589
0.278545
0.438543
0.519772
0.135923
-0.170592
0.110259
0.499948
0.449474
0.286735
0.406626
0.47051
0.213988
-0.0135091
0.48398
0.465409
0.0686551
0.0470283
0.440349
0.582363
0.240084
-0.0327732
0.200551
0.574392
0.499789
0.0899437
-0.0116948
0.357744
0.615122
0.348407
-0.0242437
0.0878265
0.506951
0.564502
0.165565
-0.0594951
0.241176
0.58609
0.429412
0.0150966
-0.0244595
0.359847
0.585453
0.306617
-0.106987
-0.0993814
0.312944
0.585725
0.485107
0.405934
0.563683
0.508517
-0.0158813
-0.384465
-0.0441604
0.508455
0.607906
0.501863
0.597831
0.529437
-0.00995836
-0.393145
-0.0496825
0.50558
0.603553
0.503969
0.603784
0.522287
-0.0218612
-0.378614
-0.02304
0.492757
0.562549
0.49356
0.605372
0.47292
-0.059196
0.26118
0.530002
0.250426
-0.312692
-0.287659
0.28259
0.474313
-0.0196239
-0.411758
-0.0798641
0.455702
0.352124
-0.229811
-0.373332
0.150519
0.514372
0.13996
-0.380823
-0.222267
0.362798
0.444086
-0.105777
-0.413829
0.000817844
0.474909
0.265482
-0.289863
-0.337756
0.170539
0.455025
0.104632
-0.351954
-0.255846
0.24704
0.435098
0.112706
-0.0806988
0.230505
0.510937
0.301337
0.0616979
0.278717
0.514503
0.275134
0.0108999
0.23644
0.514079
0.327872
0.0951758
0.302673
0.517257
0.267812
0.018001
0.253058
0.510418
0.310239
0.104684
0.32729
0.49792
0.225694
0.0396605
0.310349
0.459486
0.119673
0.509568
0.627375
0.36999
-0.0382246
0.0234328
0.464323
0.590853
0.218766
-0.0590722
0.187214
0.569848
0.494872
0.0842804
-0.0153535
0.354309
0.611306
0.350078
-0.0142293
0.0963679
0.505084
0.56427
0.186959
-0.0238004
0.258578
0.581159
0.448712
0.0893934
0.0555801
0.372337
0.555028
0.359334
0.109201
0.203253
0.515559
0.485566
-0.0331466
-0.368172
-0.0225373
0.504211
0.593603
0.491889
0.593275
0.533034
-0.0102568
-0.413048
-0.0769602
0.497525
0.615156
0.513522
0.608014
0.532095
-0.0215615
-0.411095
-0.0608919
0.502169
0.609028
0.522995
0.617208
0.502094
-0.0517604
-0.369474
0.0089969
0.488699
0.499204
0.242863
0.436242
0.525367
0.476035
0.477022
0.531019
0.531786
0.499857
0.501413
0.521283
0.523696
0.517505
0.518896
0.521022
0.518858
0.519422
0.523792
0.524906
0.519886
0.514286
0.515869
0.526719
0.532124
0.514603
0.493948
0.513282
0.554698
0.53883
0.474293
0.477094
0.553421
0.561048
0.508445
0.548643
0.540122
0.245925
-0.0085626
0.198342
0.513108
0.42441
0.235525
0.394572
0.52821
0.202192
-0.102192
0.152919
0.516728
0.411196
0.20288
0.37866
0.525719
0.194294
-0.108325
0.154793
0.516694
0.414111
0.220135
0.388102
0.507302
0.184604
-0.0894739
0.15066
0.511188
0.523864
-0.220837
0.00014572
0.361683
0.576436
0.450691
0.107862
0.00294695
0.322371
0.59811
0.384378
0.00592458
0.0696762
0.480695
0.582159
0.21062
-0.0423805
0.223567
0.58458
0.467477
0.0557285
-0.00419313
0.37916
0.595978
0.294488
-0.0560813
0.095715
0.498841
0.490496
0.0845432
-0.0549893
0.248509
0.405042
0.160074
0.0452131
0.304804
0.489108
0.462316
0.528544
0.507273
0.0726567
-0.29935
-0.0240537
0.48835
0.56959
0.444189
0.555169
0.547805
0.0511835
-0.346227
-0.0341751
0.502523
0.574544
0.444087
0.555534
0.538477
0.0418914
-0.339247
-0.0253267
0.504039
0.588302
0.437353
0.466566
0.490305
0.249246
-0.156312
-0.0932758
0.209245
0.450082
0.27403
-0.203473
-0.338269
0.119373
0.496731
0.181954
-0.351703
-0.257134
0.32133
0.462883
-0.0582341
-0.414771
-0.0460616
0.461306
0.307165
-0.263236
-0.355701
0.167407
0.476051
0.0789895
-0.39853
-0.211545
0.315408
0.313519
-0.199605
-0.372075
0.00126679
0.169131
-0.165934
-0.301961
0.101354
0.438675
0.423518
0.452066
0.465445
0.0885533
-0.27606
-0.023268
0.47058
0.524544
0.363575
0.476738
0.530163
0.103518
-0.272117
0.0103558
0.497263
0.524876
0.3737
0.502298
0.532346
0.0791236
-0.290987
0.00301231
0.498365
0.548017
0.379016
0.419108
0.465621
0.220235
0.304761
0.280352
0.384231
0.493817
0.403486
0.124791
0.0404086
0.341138
0.596269
0.377411
0.00172851
0.0654498
0.473688
0.577876
0.213499
-0.0422273
0.208754
0.568323
0.476116
0.0812001
-0.00121471
0.353398
0.588988
0.333527
-0.0104067
0.0990707
0.467977
0.47423
0.116024
0.01653
0.302323
0.393831
0.11588
0.0379996
0.314489
0.345194
0.0560096
0.0973348
0.443983
0.467631
0.280936
0.389116
0.515632
0.177566
-0.190579
0.0367246
0.481715
0.487703
0.31261
0.443362
0.525632
0.137427
-0.200831
0.0760945
0.503099
0.465485
0.287726
0.42954
0.5076
0.138367
-0.16678
0.0842803
0.481027
0.499747
0.358544
0.522412
0.529061
0.432967
0.453124
0.543474
0.55248
0.509264
0.509273
0.533196
0.528165
0.511058
0.516582
0.53407
0.536251
0.519605
0.505455
0.518575
0.546238
0.542587
0.503485
0.495611
0.541827
0.555934
0.50148
0.482656
0.539603
0.529503
0.422467
0.427004
0.559393
0.543972
0.375445
0.406865
0.574896
0.360806
-0.104282
-0.0608072
0.440104
0.642105
0.523998
0.557506
0.545519
0.0963113
-0.320491
-0.0669153
0.477764
0.608307
0.500268
0.588341
0.544389
0.0275815
-0.36833
-0.05033
0.494313
0.594065
0.498897
0.600239
0.51618
-0.0180024
-0.345917
0.0132829
0.488234
0.519008
-0.0338809
0.393676
0.354864
0.0155301
0.0666215
0.471161
0.562304
0.191404
-0.0460187
0.220931
0.574888
0.472709
0.0820577
0.0124819
0.369203
0.590211
0.328776
0.00423959
0.127507
0.488962
0.509355
0.177143
0.027544
0.250044
0.450867
0.35065
0.158427
0.104789
0.14568
0.204202
0.236949
0.153696
0.0280988
0.130178
0.387449
0.350733
0.0649554
0.0960148
0.37942
0.332572
0.0919685
0.201514
0.467666
0.375236
0.16241
0.314818
0.512783
0.273337
-0.00252427
0.210608
0.508258
0.353136
0.125519
0.317084
0.516575
0.262674
0.019626
0.25688
0.497002
0.288517
0.112833
0.346751
0.448678
0.103013
-0.0833033
0.370879
0.231322
-0.262779
-0.223966
0.301325
0.426385
-0.0740341
-0.407942
-0.0497323
0.444201
0.311685
-0.236485
-0.352579
0.134159
0.461635
0.124965
-0.338324
-0.212644
0.278093
0.357456
-0.0646281
-0.308503
-0.0591437
0.222663
0.134663
-0.101236
-0.171256
-0.126358
-0.082784
-0.0517999
-0.108742
-0.251369
-0.21277
0.100263
0.340834
0.340476
0.353981
0.339331
0.00965218
-0.314696
-0.103391
0.387995
0.554291
0.491664
0.580565
0.525025
-0.00201554
-0.41417
-0.101841
0.469134
0.597385
0.497404
0.594669
0.533082
-0.00835612
-0.398439
-0.0643956
0.472876
0.571714
0.50655
0.602368
0.440438
-0.121736
0.358613
0.611947
0.427899
0.0232021
0.0613251
0.46792
0.568645
0.209392
-0.0330628
0.212222
0.559382
0.478599
0.097945
-0.00343929
0.322086
0.574847
0.37036
0.0286215
0.0706374
0.414289
0.520195
0.248372
0.0488444
0.192978
0.392374
0.348587
0.205729
0.178507
0.2001
0.20254
0.23966
0.250804
0.145251
0.0901356
0.242032
0.422199
0.477139
0.507038
0.445755
0.145003
-0.0720624
0.154406
0.479936
0.402625
0.200553
0.35656
0.518641
0.213687
-0.0967731
0.146638
0.515481
0.412319
0.18376
0.350469
0.520864
0.210004
-0.10297
0.137124
0.502265
0.433358
0.251716
0.380096
0.469969
0.215469
0.485313
0.558236
0.537134
0.435194
0.442541
0.53161
0.55921
0.523734
0.502746
0.508886
0.526463
0.545306
0.537902
0.501006
0.496451
0.554005
0.579798
0.510793
0.459613
0.534994
0.612448
0.538121
0.441138
0.502939
0.611318
0.55802
0.438767
0.464702
0.566013
0.570035
0.500622
0.482076
0.524485
0.565642
0.521877
0.364656
0.279309
0.421977
0.54742
0.409596
0.308725
0.519731
0.618877
0.188274
-0.24923
-0.0115625
0.50301
0.573755
0.425631
0.542124
0.582979
0.122243
-0.305415
-0.0419098
0.490568
0.578775
0.439515
0.536521
0.562194
0.145946
-0.242813
-0.0426017
0.432687
0.596593
0.00421487
0.0326528
0.282243
0.470715
0.381904
0.117142
0.0605699
0.334522
0.532622
0.324463
0.0311489
0.124842
0.453101
0.491402
0.206367
0.0761162
0.267187
0.427125
0.344551
0.243966
0.265279
0.251823
0.200537
0.29445
0.437814
0.32705
0.0761644
0.107625
0.396461
0.47716
0.205899
0.014188
0.223665
0.548339
0.480976
0.0461925
-0.147371
0.174439
0.471673
0.300629
0.100184
0.336987
0.558464
0.199006
-0.261704
-0.0661367
0.441309
0.506391
0.319449
0.413977
0.516902
0.162396
-0.224278
-0.00893312
0.462727
0.529601
0.388291
0.483317
0.533225
0.162128
-0.229615
-0.0816131
0.380894
0.540276
-0.266427
-0.219472
0.148371
0.422417
0.253318
-0.179708
-0.282373
0.107766
0.40038
0.127294
-0.288913
-0.198011
0.235179
0.32067
-0.0379812
-0.243884
-0.0358093
0.184884
0.130905
0.0243727
0.0185188
-0.0492421
-0.129922
0.0319049
0.273447
0.135682
-0.249182
-0.253816
0.171314
0.342739
-0.050747
-0.402772
-0.143656
0.368726
0.375267
-0.114276
-0.303968
0.115217
0.430116
0.0994408
-0.293707
-0.0503472
0.436456
0.424006
0.13428
0.203272
0.401604
0.177032
-0.162795
-0.0151516
0.388525
0.451549
0.299404
0.381389
0.469288
0.172911
-0.126731
0.061296
0.42085
0.432011
0.24817
0.289448
0.451878
0.336727
0.132505
0.165183
0.397795
0.576758
0.460263
0.143145
0.0472292
0.32153
0.559889
0.386824
0.0642063
0.091878
0.403663
0.494572
0.243958
0.0806136
0.220506
0.376324
0.338073
0.278885
0.299463
0.236261
0.134085
0.246315
0.468539
0.393964
0.0802991
0.0404249
0.371787
0.541387
0.25345
-0.0479486
0.109322
0.48994
0.517581
0.182769
0.0627441
0.37484
0.581043
0.275469
-0.0849948
0.0737287
0.490476
0.5891
0.46293
0.49139
0.488407
0.15674
-0.155446
0.0120162
0.425321
0.575229
0.523588
0.576273
0.51564
0.090441
-0.250251
-0.0356452
0.418493
0.578831
0.493638
0.490762
0.52966
0.374256
0.501312
0.436494
0.420351
0.495197
0.561974
0.506823
0.42251
0.472162
0.604844
0.600328
0.449636
0.410113
0.562223
0.648414
0.509038
0.39236
0.502036
0.635495
0.56178
0.432957
0.479593
0.58613
0.561769
0.478329
0.492922
0.554542
0.548494
0.503669
0.505478
0.542759
0.551007
0.526281
0.504341
0.506902
0.515784
0.506576
0.496586
0.512274
0.516482
0.470554
0.446553
0.487472
0.471952
0.371347
0.389642
0.548279
0.545497
0.327049
0.250463
0.446376
0.553709
0.336037
0.148644
0.326159
0.527531
0.36666
0.15676
0.300727
0.543722
0.469343
0.222317
0.19949
0.379457
0.473316
0.361825
0.176031
-0.00164861
0.048033
0.272243
0.382883
0.266384
0.14716
0.222262
0.323982
0.255569
0.181139
0.297672
0.403847
0.248796
0.0841582
0.244651
0.493666
0.378114
0.0501882
0.0605538
0.415469
0.556017
0.253105
-0.017093
0.17012
0.530912
0.511032
0.138132
-0.0102081
0.302669
0.59986
0.417775
0.0420578
0.0611235
0.427834
0.544987
0.226459
-0.0220619
0.192677
0.568309
0.555974
0.136685
-0.132309
0.0950731
0.428534
0.369075
0.13675
0.251716
0.585082
0.527593
-0.00341127
-0.327899
-0.00932789
0.472093
0.530617
0.365872
0.426647
0.54595
0.311904
-0.105024
-0.183957
0.117776
0.391861
0.220003
0.0579591
-0.105463
-0.0711407
0.139043
0.244461
0.102549
-0.0555498
0.00314308
0.100812
0.0143811
-0.0622693
0.0978651
0.224791
-0.000548427
-0.245048
-0.0381174
0.33504
0.224062
-0.243514
-0.303615
0.174503
0.436617
0.046223
-0.385587
-0.165971
0.374881
0.387204
-0.159556
-0.412587
0.0286321
0.475507
0.224882
-0.316697
-0.276499
0.286583
0.480122
0.00226255
-0.397392
-0.102995
0.441188
0.429974
-0.0952976
-0.327488
0.0649575
0.433308
0.202812
-0.197984
-0.0676076
0.409867
0.472535
0.00322594
-0.283207
0.0374357
0.470864
0.434381
0.152877
0.183837
0.43148
0.367082
0.00887511
-0.115987
0.129653
0.347202
0.354637
0.42037
0.361344
0.293704
0.364872
0.459203
0.395764
0.269824
0.286712
0.357895
0.296797
0.227016
0.341085
0.449485
0.281234
0.069082
0.203785
0.506117
0.456951
0.101534
0.0166463
0.357387
0.578001
0.309171
-0.0256301
0.112478
0.513057
0.539223
0.141867
-0.0544531
0.262158
0.59023
0.404153
0.00189903
0.0316885
0.45312
0.6062
0.260851
-0.0413873
0.151434
0.524437
0.510489
0.166235
0.065656
0.383472
0.608026
0.352874
-0.018812
0.0407031
0.420226
0.565579
0.359498
0.228215
0.392446
0.543687
0.3778
0.107028
0.156126
0.460918
0.570089
0.41072
0.323307
0.422573
0.482984
0.305064
0.646895
0.627882
0.352937
0.302001
0.53335
0.647151
0.490896
0.377977
0.495121
0.616839
0.552416
0.451057
0.48838
0.566929
0.549978
0.491413
0.50047
0.545908
0.546772
0.512877
0.505882
0.531251
0.539993
0.521694
0.509978
0.523115
0.535674
0.526248
0.513494
0.521952
0.53689
0.527098
0.505768
0.506073
0.520377
0.521802
0.516812
0.520301
0.51817
0.501217
0.491125
0.504814
0.52379
0.520681
0.497124
0.473232
0.461222
0.45925
0.456121
0.467104
0.529291
0.588288
0.532005
0.405043
0.351123
0.39065
0.455634
0.486811
0.484193
0.526596
0.593927
0.554547
0.442119
-0.00343006
0.475059
0.400294
-0.0799174
-0.178746
0.247639
0.506055
0.216241
-0.0898474
0.114856
0.495937
0.436799
0.0502722
-0.0196811
0.348207
0.579036
0.316244
-0.0174554
0.108033
0.50079
0.548092
0.177441
-0.0234209
0.265743
0.593504
0.442672
0.049578
0.0342574
0.422246
0.603976
0.295413
-0.0143771
0.163395
0.55047
0.536056
0.132915
-0.0351826
0.296237
0.612766
0.421833
0.0298037
0.05631
0.447319
0.562889
0.202539
-0.0708162
0.178847
0.580813
0.53564
0.122623
-0.0312789
0.286796
0.534627
0.284281
-0.0509249
0.101223
0.521109
0.576795
0.206839
-0.0182527
0.229022
0.515426
0.354583
0.0311304
0.004152
0.41525
0.295071
-0.205596
-0.293839
0.167594
0.423999
0.0447942
-0.359962
-0.129694
0.365722
0.314055
-0.212783
-0.362161
0.11949
0.471462
0.125617
-0.372838
-0.227567
0.340146
0.431908
-0.101602
-0.413947
-0.00555147
0.481579
0.275523
-0.298998
-0.332743
0.228739
0.497877
0.0487198
-0.408533
-0.150185
0.422184
0.412702
-0.163869
-0.405195
0.0648543
0.505385
0.22516
-0.322756
-0.261254
0.312315
0.482367
-0.0265515
-0.416476
-0.0743445
0.478563
0.402121
-0.169398
-0.343805
0.131486
0.472998
0.13111
-0.310431
-0.0989137
0.457829
0.492815
-0.0535244
-0.341839
0.0521035
0.462809
0.220248
-0.257848
0.389343
0.563048
0.497888
0.251915
0.211572
0.455187
0.580377
0.334953
0.070531
0.209091
0.537037
0.510119
0.144291
0.0172621
0.339775
0.595272
0.357878
-0.00562072
0.0857386
0.492811
0.564516
0.178368
-0.0553409
0.236514
0.593106
0.447294
0.0289774
0.000850938
0.40805
0.605487
0.279546
-0.0557685
0.127694
0.542493
0.540689
0.130733
-0.0400495
0.295893
0.60456
0.394111
-0.00156049
0.048816
0.469251
0.601653
0.249073
-0.0294965
0.194159
0.559866
0.489601
0.094542
0.00686362
0.374794
0.619681
0.366176
0.0355306
0.155362
0.523642
0.538066
0.156441
-0.0157891
0.308634
0.614877
0.409244
0.0179019
0.514215
0.35319
0.407086
0.578167
0.599711
0.47178
0.419563
0.504486
0.569107
0.530357
0.482789
0.503586
0.542511
0.536238
0.51018
0.512083
0.528397
0.527838
0.517584
0.520637
0.529047
0.523752
0.513356
0.517302
0.529751
0.528476
0.515296
0.512506
0.52505
0.532077
0.522347
0.511902
0.515003
0.523489
0.523837
0.51799
0.517018
0.523449
0.526101
0.516888
0.507316
0.509738
0.515161
0.515962
0.522088
0.52944
0.519699
0.50056
0.494208
0.503095
0.515445
0.517884
0.511237
0.51343
0.519541
0.507352
0.489078
0.486116
0.491236
0.502766
0.525002
0.536565
0.513018
0.47313
0.255406
-0.200294
-0.0648734
0.438609
0.49647
0.0382814
-0.167642
0.218465
0.580975
0.363631
-0.0524068
0.0115083
0.451416
0.572224
0.200115
-0.0569694
0.212404
0.582127
0.472111
0.0641352
0.00725198
0.391913
0.612355
0.323181
-0.0170999
0.128695
0.531004
0.555817
0.163932
-0.0271635
0.284519
0.60977
0.435648
0.0337942
0.0353791
0.436948
0.604599
0.274768
-0.0297708
0.173266
0.564576
0.52475
0.108679
-0.0343366
0.32104
0.613977
0.381838
-0.00131263
0.0777506
0.491944
0.578233
0.190632
-0.0638013
0.216776
0.585845
0.462031
0.0627793
0.0427314
0.434007
0.606686
0.287752
-0.00447415
0.197006
0.557844
0.199492
-0.319956
-0.186561
0.366623
0.415295
-0.139892
-0.402521
0.0543911
0.492343
0.199543
-0.356789
-0.285053
0.299686
0.462542
-0.0550353
-0.423741
-0.0541677
0.467703
0.313345
-0.271293
-0.358073
0.192185
0.510889
0.0950442
-0.397634
-0.188731
0.393009
0.430286
-0.136027
-0.413927
0.0346685
0.504902
0.257641
-0.316831
-0.313062
0.262402
0.500525
0.0250525
-0.412672
-0.119765
0.445384
0.394369
-0.193521
-0.394658
0.104805
0.512198
0.184177
-0.349541
-0.231613
0.352646
0.4694
-0.0740124
-0.417829
-0.0142476
0.501336
0.319634
-0.253643
-0.289201
0.268266
0.507824
0.0282566
-0.402305
-0.0877593
0.460392
0.452791
0.185309
0.254468
0.554908
0.576235
0.243609
0.0753267
0.344785
0.610858
0.415667
0.045963
0.0887831
0.478706
0.584502
0.221396
-0.040066
0.216862
0.583936
0.472583
0.0543176
-0.00916742
0.383686
0.611235
0.312048
-0.0421458
0.107876
0.526039
0.553202
0.146801
-0.0530045
0.268104
0.604915
0.428256
0.0178245
0.021411
0.433805
0.604129
0.262883
-0.0524877
0.154509
0.55793
0.524133
0.109313
-0.030069
0.326058
0.612693
0.375315
-0.0077921
0.0729668
0.487696
0.574969
0.199749
-0.0339752
0.250113
0.603547
0.460863
0.0387844
0.00750747
0.417038
0.59514
0.231346
-0.0996143
0.139465
0.558426
0.440276
0.588631
0.554084
0.440051
0.443828
0.541912
0.57447
0.512693
0.47148
0.503907
0.54395
0.537023
0.512106
0.510239
0.5226
0.52565
0.521591
0.52198
0.52289
0.519152
0.517578
0.522911
0.526503
0.520903
0.514439
0.517546
0.52541
0.525796
0.518893
0.51579
0.520364
0.52454
0.521476
0.515782
0.516424
0.523041
0.525793
0.520661
0.51535
0.516197
0.519574
0.51961
0.517355
0.518222
0.522482
0.523997
0.518952
0.511134
0.50865
0.514382
0.522393
0.528366
0.527642
0.515904
0.505512
0.501126
0.488932
0.486444
0.519125
0.545246
0.513398
0.468925
0.494641
0.560003
0.0882841
0.538465
0.38428
-0.0924987
-0.102435
0.371186
0.574707
0.207485
-0.114688
0.130577
0.551377
0.488896
0.0635578
-0.0361262
0.348365
0.609876
0.34339
-0.0199158
0.0972317
0.510116
0.568942
0.183624
-0.0362852
0.256363
0.601095
0.45512
0.0482373
0.0214033
0.417538
0.612958
0.298866
-0.0308932
0.142788
0.545974
0.543193
0.139223
-0.0286453
0.304927
0.614936
0.412722
0.0167998
0.0517225
0.46221
0.599245
0.246183
-0.0373306
0.197215
0.575373
0.4973
0.0926705
0.0124633
0.389037
0.616748
0.320036
-0.0306216
0.125104
0.532846
0.549256
0.17721
0.0370464
0.358922
0.624773
0.422108
0.10912
0.0236075
0.498719
0.287332
-0.294069
-0.318699
0.245604
0.481126
0.00215393
-0.420674
-0.10818
0.436953
0.338854
-0.246126
-0.383638
0.146386
0.503993
0.123853
-0.388908