# vtk DataFile Version 3.0
PFC-RG simulation results
ASCII
DATASET STRUCTURED_POINTS
DIMENSIONS 64 64 1
ORIGIN 0 0 0
SPACING 1 1 1
POINT_DATA 4096
SCALARS psi double
LOOKUP_TABLE default
0.486849
0.536636
0.50711
0.435754
0.466289
0.538723
0.531464
0.487718
0.503318
0.542882
0.529133
0.491639
0.519128
0.576126
0.548508
0.463891
0.480253
0.597653
0.602467
0.463813
0.420046
0.563171
0.639212
0.51407
0.422136
0.521108
0.624127
0.548081
0.431612
0.467228
0.580807
0.592576
0.515807
0.485555
0.515837
0.526444
0.496311
0.466485
0.462698
0.474857
0.510618
0.553037
0.440823
0.138317
0.0203998
0.30097
0.578285
0.54325
0.492869
0.610604
0.48423
-0.047808
-0.334577
0.0581726
0.562123
0.608622
0.504239
0.586758
0.49748
0.0185104
-0.298269
-0.0168267
0.463128
0.618469
-0.0103825
0.0765512
0.337677
0.531565
0.433622
0.128691
0.0301888
0.311954
0.564538
0.385873
0.0436726
0.0720165
0.430477
0.555085
0.248237
-0.0144335
0.167891
0.49821
0.456071
0.137749
0.0573716
0.308311
0.460859
0.329513
0.204203
0.238169
0.268822
0.251178
0.332044
0.434749
0.321398
0.110336
0.16856
0.443696
0.471263
0.184199
0.080869
0.376503
0.59751
0.355744
0.0330843
0.149212
0.440734
0.379623
0.183993
0.29376
0.456066
0.327909
0.220945
0.410459
0.485263
0.153485
-0.0710221
0.214272
0.511888
0.364112
0.181373
0.360822
0.510962
0.269192
0.0150648
0.152576
0.433412
0.455299
-0.336219
-0.258697
0.127387
0.443199
0.28131
-0.205786
-0.343928
0.099492
0.463076
0.168565
-0.33246
-0.254092
0.27687
0.422129
-0.0370453
-0.369407
-0.0673408
0.372685
0.262024
-0.186744
-0.260496
0.106641
0.311002
0.107056
-0.10472
-0.0766303
0.00747922
0.0480442
0.152984
0.204995
-0.0210141
-0.285751
-0.130503
0.292041
0.333182
-0.0714734
-0.219247
0.19161
0.482144
0.106582
-0.364058
-0.164817
0.39084
0.554516
0.427443
0.452938
0.38981
-0.0354941
-0.304129
0.0350975
0.500183
0.537922
0.437049
0.55001
0.488062
-0.0141932
-0.345045
-0.00772814
0.506217
0.593558
0.442041
0.436548
0.459939
0.261981
0.00460175
0.0417334
0.294484
0.514262
0.422694
0.0978956
0.00484681
0.324508
0.584872
0.361793
-0.00399698
0.0690042
0.465917
0.559541
0.213682
-0.0104731
0.235284
0.549583
0.438539
0.10379
0.080433
0.371752
0.502463
0.316895
0.158687
0.21062
0.294349
0.312023
0.358891
0.366286
0.180626
-0.00207777
0.156306
0.50288
0.508338
0.119237
-0.0648453
0.2613
0.52961
0.247537
-0.10311
0.0895968
0.485994
0.486756
0.334219
0.457516
0.49448
0.0862809
-0.22156
0.0822122
0.516005
0.507068
0.371297
0.504937
0.511951
0.0733613
-0.236022
0.0718224
0.49715
0.47147
0.286307
0.36761
0.504413
0.383225
0.424272
0.512346
0.510175
0.445632
0.463187
0.524634
0.535169
0.52018
0.523639
0.523199
0.513786
0.519922
0.532134
0.524114
0.511731
0.524873
0.542315
0.528874
0.501349
0.514189
0.5561
0.551604
0.492689
0.479763
0.556177
0.588885
0.500557
0.433712
0.519735
0.608634
0.520897
0.393603
0.456206
0.623371
0.585018
0.298581
0.144445
0.370454
0.614744
0.526907
0.403859
0.534705
0.539348
0.125317
-0.160413
0.15955
0.570254
0.503567
0.329318
0.474107
0.51809
0.103871
-0.200958
0.108284
0.524012
0.483139
0.339338
0.48637
0.502479
0.0750219
-0.215869
0.0812316
0.482591
0.510651
0.268501
0.544679
0.369993
-0.00806173
0.0573478
0.47588
0.582352
0.22361
-0.0292123
0.211715
0.570498
0.492781
0.0975932
-0.00475047
0.343065
0.595436
0.353469
-0.00565567
0.0758299
0.466908
0.555887
0.207591
-0.0417261
0.179549
0.523244
0.46982
0.121012
-0.00314066
0.25044
0.486976
0.408254
0.200834
0.14879
0.2476
0.288732
0.186605
0.145147
0.33247
0.494248
0.419046
0.394874
0.568623
0.491239
-0.0339067
-0.350539
0.0241863
0.531281
0.567069
0.45855
0.582524
0.517442
-0.0189515
-0.36959
-0.00820451
0.510762
0.565757
0.469381
0.587422
0.507695
0.00110233
-0.264998
0.0924311
0.409969
0.248667
-0.0547193
0.395786
0.20427
-0.30919
-0.244984
0.311706
0.453981
-0.0547103
-0.416541
-0.0656278
0.455947
0.339574
-0.233754
-0.370209
0.142384
0.498341
0.137851
-0.369038
-0.22803
0.330861
0.427881
-0.0770696
-0.388167
-0.0392068
0.409548
0.278434
-0.196181
-0.302627
0.0684734
0.355534
0.20383
-0.118048
-0.222939
-0.0560886
0.154896
0.219324
0.24442
0.365402
0.34188
0.0403482
-0.088064
0.227319
0.486436
0.30033
0.119639
0.336835
0.485457
0.179563
-0.0529899
0.233079
0.525451
0.345642
0.146728
0.356645
0.503895
0.190847
-0.0512752
0.219995
0.495874
0.34447
0.232753
0.450367
0.409034
-0.0939454
0.114773
0.508808
0.383884
-0.0014993
0.0529331
0.470467
0.573111
0.199778
-0.060164
0.19705
0.573271
0.489205
0.0800921
-0.0123843
0.358009
0.610892
0.351198
-0.00519401
0.104651
0.501124
0.558718
0.201406
0.00420567
0.264676
0.560589
0.444248
0.126668
0.0885557
0.352597
0.524072
0.379908
0.115028
0.0281886
0.209941
0.452708
0.497767
0.440017
0.476536
0.372191
-0.0561172
-0.30374
0.0458053
0.524151
0.592635
0.513618
0.609535
0.494948
-0.0632
-0.402815
-0.0185786
0.528041
0.610671
0.519458
0.617673
0.511974
-0.0429581
-0.389086
-0.0293911
0.486262
0.571304
0.519545
0.629213
0.502683
0.0302185
0.465439
0.570562
0.54084
0.457477
0.479017
0.540755
0.538193
0.50572
0.506078
0.523123
0.523607
0.515196
0.515692
0.522612
0.524366
0.51909
0.51596
0.523901
0.531884
0.522253
0.506192
0.5165
0.546136
0.541379
0.499574
0.492959
0.54654
0.568457
0.516602
0.489961
0.530401
0.528553
0.465221
0.495025
0.568733
0.452363
0.278355
0.356694
0.472447
0.275842
0.0837127
0.283903
0.507342
0.344893
0.173246
0.373767
0.515581
0.214264
-0.0309517
0.231479
0.518857
0.347886
0.143462
0.343219
0.514342
0.243644
-0.000793824
0.231894
0.508763
0.364218
0.150549
0.286929
0.495005
0.454229
0.328235
0.164175
0.280871
0.511942
0.472147
0.141267
0.0131972
0.326799
0.604288
0.386101
0.00147891
0.0619546
0.47558
0.58568
0.215464
-0.0518291
0.203247
0.577252
0.479563
0.0613107
-0.0228333
0.358407
0.603002
0.319342
-0.0491399
0.0797343
0.499554
0.53648
0.141869
-0.0413515
0.25603
0.53682
0.44095
0.253712
0.173829
0.0172339
-0.115904
0.106477
0.483895
0.57031
0.507616
0.577898
0.468224
-0.0395988
-0.356087
-5.85934e-05
0.515027
0.582809
0.481636
0.586889
0.515885
-0.0147437
-0.380448
-0.038922
0.505901
0.604603
0.48859
0.564056
0.543094
0.111186
-0.301284
-0.162447
0.32998
0.617074
-0.0792749
-0.26096
0.0245211
0.429086
0.348495
-0.174951
-0.369358
0.0950336
0.502974
0.194672
-0.352284
-0.266545
0.320115
0.477049
-0.0450507
-0.419887
-0.0568788
0.46875
0.327572
-0.25582
-0.361209
0.174657
0.501558
0.100879
-0.389272
-0.190835
0.370501
0.39003
-0.149061
-0.370145
0.0495316
0.420216
0.262539
-0.0226413
-0.0789596
-0.0837877
-0.0655312
0.171936
0.426459
0.388578
0.312554
0.473895
0.488641
0.076226
-0.209163
0.100769
0.511429
0.469796
0.318123
0.469792
0.520732
0.110342
-0.211531
0.0796061
0.511341
0.481857
0.28505
0.395736
0.529654
0.258918
-0.126281
-0.0924517
0.292972
0.507536
-0.071871
-0.0752295
0.238298
0.558341
0.496976
0.117782
-0.0270273
0.303993
0.603306
0.391437
0.00295622
0.0612148
0.476638
0.589736
0.223601
-0.0384869
0.217802
0.586249
0.486819
0.0809664
0.0124533
0.388938
0.613722
0.331722
-0.00337628
0.144494
0.531449
0.529871
0.156059
0.0285902
0.324636
0.528382
0.363094
0.194057
0.254504
0.34597
0.409339
0.50452
0.390734
-0.0309074
-0.239764
0.11988
0.536972
0.506377
0.374512
0.51522
0.516994
0.0592008
-0.269542
0.0512686
0.517949
0.524122
0.378028
0.506609
0.532657
0.087935
-0.291039
-0.0297512
0.477204
0.578434
0.380237
0.346139
0.483105
0.471505
0.298178
0.420938
0.504531
0.492527
0.494365
0.519285
0.519265
0.510914
0.517425
0.524064
0.521799
0.519229
0.518481
0.517413
0.520075
0.52526
0.523045
0.515135
0.515376
0.525165
0.52914
0.521425
0.514598
0.517581
0.526849
0.531723
0.520603
0.498567
0.505286
0.551449
0.549888
0.443859
0.375682
0.486942
0.602311
0.538325
0.490069
0.573193
0.4334
-0.0580981
-0.310832
0.0681663
0.539251
0.556637
0.445309
0.569829
0.52198
0.00811966
-0.346022
-0.00423463
0.5127
0.566881
0.441977
0.553174
0.532788
0.0524287
-0.316075
-0.0279098
0.45996
0.528517
0.386721
0.454953
0.577997
0.483689
0.447716
0.589528
0.357374
-0.0297835
0.0252918
0.455531
0.600473
0.249185
-0.0416626
0.181359
0.567266
0.507661
0.0918932
-0.025943
0.342105
0.613459
0.354688
-0.0263546
0.0742394
0.49583
0.568021
0.176928
-0.0575248
0.230718
0.580972
0.442835
0.0368178
-0.00932263
0.365017
0.577678
0.298834
-0.0593529
0.0370585
0.436765
0.507082
0.134947
-0.0657583
0.228018
0.507656
0.364517
0.210825
0.410125
0.512851
0.158491
-0.114151
0.17041
0.518271
0.401406
0.213176
0.3952
0.518868
0.174896
-0.119314
0.145277
0.505274
0.423257
0.257166
0.416107
0.486885
0.134456
-0.109146
0.156567
0.440277
0.340665
0.272423
0.505129
0.19578
-0.33799
-0.278802
0.295622
0.488584
-0.00249997
-0.410333
-0.0964897
0.449114
0.368393
-0.214815
-0.379874
0.136722
0.516438
0.154522
-0.375342
-0.231372
0.357201
0.455572
-0.0903883
-0.414435
-0.00850776
0.482044
0.290078
-0.273078
-0.332266
0.183925
0.466142
0.0980893
-0.321724
-0.13111
0.370219
0.376954
-0.165618
-0.445414
-0.0208667
0.526526
0.600477
0.496306
0.592143
0.507079
-0.0395296
-0.408764
-0.0498763
0.5117
0.613925
0.514889
0.609474
0.526007
-0.0234695
-0.402745
-0.0584809
0.491156
0.600527
0.525395
0.618461
0.500979
-0.0208468
-0.279778
0.0716596
0.354244
0.151833
0.131411
0.503058
0.405532
0.05085
0.0794259
0.464014
0.58421
0.239903
-0.0353378
0.188306
0.566345
0.509085
0.104716
-0.00873708
0.351483
0.615984
0.364099
-0.00348055
0.098923
0.508925
0.576067
0.197025
-0.0251995
0.258096
0.598132
0.467685
0.0822628
0.0402994
0.392846
0.595113
0.357529
0.0674264
0.173141
0.50319
0.522524
0.149734
-0.0632707
0.217064
0.50272
0.319978
0.0872475
0.28802
0.509494
0.278305
0.0312962
0.256274
0.515019
0.312797
0.0771648
0.289381
0.516404
0.286623
0.0465778
0.270228
0.509312
0.293961
0.0665258
0.275224
0.482289
0.294909
0.169895
0.40499
0.467693
0.130231
0.179292
0.444621
0.550049
0.532231
0.532703
0.535022
0.507562
0.498876
0.523025
0.530921
0.513356
0.507988
0.521896
0.527973
0.518365
0.511796
0.518523
0.527402
0.524758
0.513585
0.510093
0.521495
0.531784
0.522062
0.504648
0.51023
0.534075
0.534807
0.512803
0.520421
0.549881
0.51993
0.441227
0.445363
0.528567
0.526383
0.489281
0.566121
0.481429
-0.00771128
-0.364462
-0.0443212
0.499302
0.609625
0.508834
0.598046
0.525413
-0.0134288
-0.399398
-0.0591519
0.502322
0.610645
0.51077
0.605273
0.530942
-0.00818946
-0.392716
-0.0691531
0.472935
0.601566
0.530161
0.599054
0.556224
0.272583
0.269266
0.162546
0.259621
0.49715
0.493337
0.154964
-0.0173389
0.288402
0.601702
0.401206
-0.00324107
0.0423039
0.467458
0.589227
0.213137
-0.0593156
0.204992
0.584163
0.474823
0.0484855
-0.0218916
0.374125
0.610081
0.310643
-0.0556733
0.0857647
0.509581
0.547084
0.150697
-0.0407891
0.252958
0.518255
0.337598
0.0632442
0.119745
0.314526
0.396291
0.474306
0.456584
0.128681
-0.130451
0.124141
0.49314
0.43702
0.269176
0.426191
0.52277
0.15783
-0.153784
0.119158
0.511001
0.438382
0.247982
0.406988
0.525246
0.183135
-0.128613
0.120249
0.509941
0.460065
0.219253
0.260226
0.448195
0.458549
0.280561
-0.0241774
0.017201
0.328766
0.337968
-0.115411
-0.347646
0.0710873
0.495132
0.213935
-0.34199
-0.274171
0.315233
0.480331
-0.044388
-0.420802
-0.0499723
0.477235
0.32424
-0.26494
-0.357488
0.191429
0.513452
0.100283
-0.396198
-0.195343
0.382237
0.42427
-0.128837
-0.405
0.00012478
0.426908
0.278475
-0.0952133
-0.180837
-0.111694
-0.0804973
0.118704
0.435615
0.505774
0.439896
0.539673
0.502609
0.0370594
-0.306436
0.00787093
0.505396
0.55215
0.420931
0.539621
0.535034
0.0516473
-0.326771
-0.0179425
0.502955
0.570618
0.429092
0.525489
0.55265
0.134435
-0.297248
-0.169588
0.317686
0.588544
0.186577
0.153876
0.272252
0.476908
0.482524
0.185717
0.0227029
0.302644
0.59724
0.405033
0.0173251
0.0647881
0.477333
0.591173
0.223594
-0.03677
0.223801
0.58962
0.482987
0.0781279
0.017595
0.395465
0.614756
0.332212
-0.00314946
0.138568
0.532042
0.552481
0.166474
-0.020787
0.263705
0.563626
0.48043
0.233785
0.102061
-0.011113
-0.0969445
0.0998929
0.445865
0.52825
0.46018
0.554004
0.512395
0.0431148
-0.304202
0.00721541
0.502606
0.545124
0.408281
0.528002
0.535706
0.0681498
-0.302336
0.000696201
0.501498
0.542946
0.386911
0.48971
0.536851
0.152472
-0.22522
-0.0627617
0.367721
0.528661
0.015195
0.407963
0.579801
0.512107
0.48975
0.535281
0.536166
0.508828
0.512526
0.529633
0.528297
0.518991
0.516593
0.518369
0.522362
0.526073
0.520904
0.510952
0.514074
0.529239
0.530765
0.512707
0.504067
0.520096
0.53469
0.524652
0.504977
0.497625
0.50884
0.530854
0.524947
0.461693
0.420255
0.490953
0.54842
0.437682
0.332707
0.439134
0.481713
0.163948
-0.108292
0.136544
0.504036
0.445891
0.272263
0.427521
0.527851
0.158614
-0.169732
0.0959396
0.50609
0.460573
0.282676
0.433943
0.525164
0.146242
-0.183838
0.0774956
0.48953
0.476688
0.319426
0.422715
0.482107
0.22028
-0.00760977
0.472299
0.455256
0.0524264
0.0249432
0.427771
0.582228
0.239201
-0.0414469
0.190939
0.570452
0.497632
0.0830696
-0.0216657
0.351311
0.612737
0.343552
-0.0338927
0.0794137
0.503849
0.561353
0.157076
-0.0681176
0.239399
0.586177
0.422562
0.00702127
-0.0214265
0.368173
0.582277
0.298999
-0.0951761
-0.073071
0.327955
0.589679
0.492011
0.408529
0.557478
0.512468
-0.00090588
-0.388672
-0.0721932
0.491354
0.613988
0.505985
0.594896
0.542702
0.0144467
-0.39248
-0.07468
0.490189
0.607604
0.503623
0.597
0.533775
0.00504803
-0.370123
-0.0402977
0.477462
0.557751
0.481371
0.593349
0.490642
-0.0223873
0.285309
0.538166
0.256287
-0.314526
-0.298825
0.273652
0.473422
-0.0184503
-0.413658
-0.0835631
0.453394
0.351909
-0.229626
-0.374426
0.148457
0.512867
0.139276
-0.381153
-0.222196
0.362577
0.441503
-0.109991
-0.414375
0.00543673
0.476523
0.257779
-0.297218
-0.330982
0.18486
0.456023
0.0896144
-0.366594
-0.266094
0.234864
0.429416
0.12199
-0.0698952
0.231558
0.511145
0.299492
0.0397283
0.247039
0.511678
0.301863
0.0249015
0.226147
0.510894
0.338419
0.091388
0.284705
0.516465
0.282683
0.0144023
0.231001
0.507231
0.334574
0.125923
0.331913
0.498524
0.214764
-0.0020843
0.262727
0.457071
0.161482
0.501779
0.626711
0.389593
-0.0135776
0.0360521
0.466315
0.591621
0.223487
-0.0512194
0.193041
0.571439
0.497542
0.0927808
-0.00544394
0.358606
0.611921
0.354642
-0.00419569
0.105418
0.508273
0.564089
0.18924
-0.0165445
0.267078
0.584121
0.44423
0.0853714
0.061009
0.383293
0.557294
0.347311
0.0909044
0.185886
0.502442
0.482098
-0.0298663
-0.374448
-0.0411292
0.49344
0.595903
0.487545
0.584964
0.550246
0.0247991
-0.407314
-0.107262
0.475755
0.618219
0.513722
0.602062
0.547511
0.00728956
-0.409721
-0.0886178
0.485039
0.61364
0.524238
0.613333
0.516137
-0.0298602
-0.375713
-0.0210957
0.476174
0.51442
0.190927
0.400009
0.52421
0.491416
0.485345
0.529207
0.527887
0.500082
0.505608
0.522658
0.518591
0.512887
0.52209
0.526796
0.517495
0.513056
0.522577
0.530235
0.522853
0.510816
0.512161
0.528019
0.535241
0.514774
0.491835
0.511153
0.5525
0.536899
0.474588
0.478442
0.552307
0.558787
0.511013
0.558718
0.551732
0.244645
-0.0355353
0.161194
0.503464
0.446985
0.252435
0.391916
0.534983
0.221019
-0.108603
0.121317
0.506446
0.430619
0.210915
0.367148
0.53041
0.218337
-0.101254
0.140319
0.510549
0.414679
0.198367
0.356008
0.51166
0.229831
-0.0472633
0.16644
0.512108
0.512915
-0.247304
-0.0263102
0.348536
0.564867
0.433825
0.0942866
-0.00361175
0.31722
0.59107
0.37497
-0.00548503
0.0592833
0.474278
0.576661
0.201266
-0.0532927
0.216321
0.579657
0.459405
0.0461138
-0.00877672
0.378426
0.590654
0.283827
-0.0621188
0.0976509
0.498405
0.481028
0.0760459
-0.0516253
0.258912
0.412167
0.165234
0.0570874
0.323206
0.499928
0.450836
0.510712
0.520595
0.11163
-0.287544
-0.0539878
0.46332
0.570486
0.439408
0.541635
0.5643
0.0917211
-0.33736
-0.0656885
0.481124
0.581273
0.447907
0.551451
0.552995
0.0646664
-0.348792
-0.0620358
0.488674
0.60814
0.462144
0.482391
0.504165
0.249563
-0.109603
-0.0537221
0.229442
0.440211
0.250944
-0.212202
-0.332027
0.121102
0.488932
0.175348
-0.351505
-0.255838
0.317972
0.456735
-0.0617917
-0.413797
-0.0450865
0.457205
0.299594
-0.266463
-0.351364
0.170863
0.469272
0.0672867
-0.399754
-0.200864
0.319842
0.300721
-0.213839
-0.367873
0.0166169
0.171215
-0.182707
-0.315093
0.113372
0.467782
0.441699
0.45884
0.490226
0.12278
-0.282272
-0.0700538
0.445221
0.540102
0.37274
0.46692
0.543295
0.137913
-0.271735
-0.0285575
0.475062
0.534081
0.372816
0.485786
0.541182
0.116007
-0.270713
-0.00809049
0.481822
0.530551
0.344127
0.384816
0.467438
0.249877
0.351105
0.334846
0.423077
0.498234
0.391971
0.128312
0.0579209
0.349617
0.592926
0.379815
0.0165869
0.0797643
0.476527
0.576337
0.220037
-0.0277926
0.219451
0.569614
0.474811
0.0859715
0.00920961
0.360524
0.586528
0.326593
-0.00858163
0.113085
0.478128
0.464405
0.0962156
0.011959
0.313402
0.392135
0.0871814
0.00962224
0.319487
0.370453
0.0574766
0.0724873
0.435866
0.479341
0.268992
0.360374
0.528997
0.229413
-0.173757
0.00311504
0.460285
0.498116
0.30844
0.420164
0.534163
0.175604
-0.195671
0.0384996
0.482441
0.485825
0.310528
0.434376
0.511994
0.136052
-0.203884
0.0297724
0.46169
0.526491
0.322721
0.497889
0.523868
0.42899
0.443157
0.538374
0.553577
0.50598
0.502273
0.532419
0.534073
0.51352
0.512157
0.531066
0.539832
0.52459
0.505915
0.517086
0.546155
0.541898
0.502406
0.498956
0.547725
0.553402
0.49133
0.482127
0.552545
0.533044
0.403855
0.410538
0.565669
0.553201
0.363474
0.393618
0.589536
0.373621
-0.148299
-0.141882
0.398446
0.649281
0.521172
0.541905
0.572468
0.15324
-0.314723
-0.121002
0.442514
0.61912
0.505516
0.577671
0.567997
0.0807979
-0.355676
-0.0907567
0.464691
0.599122
0.496953
0.58386
0.531592
0.0340355
-0.31279
0.00409874
0.473373
0.520338
-0.0982936
0.31246
0.314636
0.0102665
0.0581385
0.447484
0.536465
0.17518
-0.0512385
0.215743
0.558804
0.450654
0.0707242
0.0146231
0.366125
0.570881
0.308955
0.00322641
0.134277
0.478035
0.485418
0.172614
0.0484039
0.257595
0.422946
0.322956
0.167721
0.126724
0.139124
0.183884
0.240951
0.173196
0.033563
0.138469
0.427448
0.38159
0.0247366
0.0231312
0.368835
0.378665
0.103803
0.164582
0.453374
0.396576
0.154931
0.272808
0.507325
0.314415
0.013722
0.184418
0.501317
0.380128
0.129734
0.290481
0.515455
0.286945
0.00448893
0.202899
0.486532
0.348808
0.175476
0.366382
0.454941
0.111647
-0.0884201
0.327931
0.228433
-0.232186
-0.213253
0.278836
0.399402
-0.0799172
-0.394122
-0.0437751
0.423348
0.284821
-0.235295
-0.329199
0.1378
0.432778
0.101851
-0.322845
-0.184068
0.271045
0.318799
-0.0795239
-0.276976
-0.0332721
0.1957
0.0902761
-0.103277
-0.143009
-0.120243
-0.0987338
-0.0522444
-0.0967004
-0.252874
-0.20684
0.14906
0.397784
0.345227
0.340229
0.388872
0.0985828
-0.291347
-0.160974
0.339917
0.558175
0.495905
0.567286
0.547236
0.0539376
-0.402483
-0.151855
0.429665
0.597991
0.490815
0.576916
0.558153
0.0448116
-0.400411
-0.12735
0.432911
0.579139
0.498907
0.568029
0.445121
-0.0723763
0.369005
0.61206
0.466474
0.0645025
0.0674738
0.455321
0.563864
0.216408
-0.0182301
0.223351
0.554184
0.46938
0.108346
0.023071
0.334264
0.563455
0.361005
0.0465025
0.104436
0.424277
0.491952
0.219525
0.0616956
0.22489
0.388733
0.313305
0.190004
0.193229
0.208954
0.193843
0.235192
0.25055
0.132338
0.081585
0.268082
0.463102
0.48938
0.511144
0.497108
0.221042
-0.0530797
0.109466
0.455218
0.436528
0.231252
0.348301
0.521858
0.244457
-0.0986415
0.100463
0.495079
0.438557
0.193746
0.330627
0.53256
0.255583
-0.0921209
0.106146
0.486113
0.423631
0.189865
0.29752
0.464354
0.283784
0.426956
0.555717
0.564422
0.408628
0.383592
0.520729
0.58774
0.519151
0.460494
0.487615
0.545303
0.563785
0.521259
0.471098
0.497291
0.584643
0.587087
0.476572
0.439609
0.561425
0.633105
0.506333
0.401898
0.507181
0.629763
0.547645
0.414391
0.458032
0.57065
0.568136
0.496684
0.481721
0.520246
0.558875
0.523514
0.367134
0.263335
0.400646
0.553642
0.434676
0.309875
0.498571
0.63264
0.248646
-0.218005
-0.047674
0.465885
0.57682
0.421129
0.516574
0.601621
0.19439
-0.268133
-0.0737462
0.459527
0.582767
0.440369
0.53333
0.591506
0.183689
-0.248305
-0.0657183
0.446052
0.624098
-0.0548786
0.0781773
0.309483
0.367947
0.262792
0.134924
0.149523
0.320482
0.413335
0.257876
0.0861927
0.187527
0.400571
0.379433
0.190736
0.170969
0.304108
0.319869
0.240714
0.287184
0.36647
0.248636
0.116515
0.258295
0.465196
0.341216
0.054228
0.0903826
0.399321
0.478856
0.201175
0.0173564
0.235295
0.555385
0.479009
0.038071
-0.163452
0.154395
0.46076
0.299533
0.0926437
0.325497
0.575033
0.239957
-0.262238
-0.126679
0.400812
0.524316
0.32735
0.38259
0.519876
0.224124
-0.197721
-0.0653524
0.401668
0.517252
0.384377
0.464661
0.531724
0.193074
-0.180241
-0.0285554
0.394785
0.473878
-0.200123
-0.0707832
0.20413
0.312315
0.155759
-0.101577
-0.13573
0.112889
0.267489
0.0538496
-0.204493
-0.0901619
0.195386
0.188355
-0.0505825
-0.0997261
0.0438984
0.0670685
-0.00216558
0.0808286
0.169769
-0.0171363
-0.214977
-0.0171479
0.301309
0.161102
-0.261757
-0.266722
0.176758
0.344489
-0.0590026
-0.40122
-0.127814
0.381066
0.378355
-0.107257
-0.28928
0.126644
0.434978
0.103862
-0.293466
-0.0575692
0.436992
0.431008
0.110494
0.153218
0.399263
0.235142
-0.141137
-0.073737
0.336766
0.460949
0.292891
0.313977
0.430165
0.216607
-0.0838308
0.0198883
0.324405
0.366794
0.255266
0.322279
0.408099
0.190322
0.267159
0.285115
0.412766
0.516269
0.441492
0.212019
0.128711
0.329316
0.497375
0.336536
0.093752
0.166194
0.410177
0.421079
0.226005
0.181802
0.301135
0.317511
0.253009
0.321533
0.408839
0.261996
0.080111
0.219413
0.491086
0.409669
0.0714031
0.0356386
0.378894
0.541493
0.245196
-0.04733
0.119459
0.493782
0.51659
0.195483
0.0894092
0.394155
0.586493
0.281564
-0.0766168
0.07315
0.486402
0.588917
0.451324
0.473239
0.510785
0.219074
-0.136354
-0.0467593
0.370769
0.58212
0.528318
0.541493
0.531308
0.202974
-0.1521
-0.062908
0.305904
0.503014
0.495403
0.498239
0.465194
0.263717
0.542619
0.34061
0.326204
0.541296
0.64515
0.44575
0.272489
0.43285
0.669413
0.582952
0.321248
0.335285
0.589074
0.657255
0.455219
0.355699
0.510442
0.633348
0.54341
0.438133
0.494461
0.576404
0.545776
0.486626
0.507841
0.550517
0.538014
0.505934
0.512843
0.54116
0.54616
0.528707
0.507415
0.499658
0.506709
0.510536
0.505506
0.506357
0.500824
0.467352
0.453424
0.484787
0.465612
0.381658
0.407069
0.551764
0.547256
0.339845
0.247318
0.418605
0.553296
0.388188
0.193966
0.332219
0.555964
0.439622
0.192877
0.260379
0.514128
0.53682
0.32937
0.236969
0.360134
0.487826
0.305564
-0.10544
-0.139671
0.256491
0.47785
0.194886
-0.103485
0.0861014
0.450384
0.384385
0.00989338
-0.0283924
0.335811
0.495862
0.19189
-0.0490066
0.187905
0.518412
0.40385
0.0361269
0.0209691
0.389754
0.568184
0.282845
-0.00996326
0.1528
0.521209
0.519586
0.146042
-0.0130803
0.299942
0.60326
0.41764
0.0337285
0.0558517
0.430668
0.54018
0.203659
-0.0436543
0.193138
0.574855
0.541974
0.118019
-0.11853
0.130535
0.435865
0.337298
0.10167
0.234145
0.583764
0.551229
0.0411574
-0.297825
-0.00852886
0.457571
0.474936
0.235064
0.292453
0.548685
0.467985
0.0282797
-0.200942
0.0752645
0.469332
0.196532
-0.219409
-0.204193
0.222499
0.40406
0.0475397
-0.287323
-0.0716075
0.329829
0.240097
-0.20329
-0.264835
0.162793
0.368167
-0.00707307
-0.349452
-0.0830095
0.372208
0.266215
-0.244764
-0.332419
0.161625
0.457287
0.0732354
-0.385586
-0.184405
0.36893
0.397279
-0.153448
-0.4165
0.026025
0.477523
0.224258
-0.318624
-0.270103
0.297504
0.478774
-0.0117644
-0.400692
-0.0846595
0.4541
0.410699
-0.122615
-0.318189
0.100421
0.439566
0.167932
-0.228358
-0.0667789
0.420986
0.467688
-0.0246657
-0.322683
0.00877248
0.440036
0.331855
-0.0455332
-0.00212082
0.394779
0.451532
0.0128337
-0.282736
-0.00970604
0.398041
0.422898
0.271461
0.29925
0.493387
0.552152
0.343539
0.162887
0.295266
0.528655
0.459584
0.171303
0.126252
0.407189
0.548881
0.290441
0.0348378
0.203338
0.533645
0.478731
0.108623
0.0159339
0.359168
0.587815
0.318746
-0.0286882
0.102602
0.510961
0.544292
0.143162
-0.0581229
0.260044
0.589738
0.402314
0.00293837
0.0403187
0.462504
0.606763
0.25802
-0.032365
0.172853
0.536458
0.497515
0.147282
0.0704639
0.404443
0.612232
0.340348
-0.0162386
0.0648296
0.436358
0.546484
0.302548
0.162303
0.365642
0.55995
0.367337
0.0225539
0.0528917
0.424397
0.582644
0.341899
0.132655
0.287115
0.531809
0.396391
0.620214
0.587211
0.395212
0.356991
0.507712
0.599089
0.520804
0.435415
0.477494
0.560586
0.55327
0.490496
0.484121
0.531138
0.547127
0.515655
0.500905
0.523681
0.538864
0.523655
0.511908
0.524236
0.531929
0.520107
0.512389
0.524744
0.534422
0.523851
0.512812
0.522511
0.535962
0.525636
0.506536
0.506961
0.517255
0.517306
0.517009
0.524108
0.519948
0.500124
0.490161
0.505412
0.524652
0.519285
0.495973
0.481325
0.477862
0.470893
0.462363
0.478872
0.533673
0.567744
0.519869
0.447644
0.423081
0.42764
0.445697
0.478312
0.508441
0.534961
0.544705
0.524467
0.508199
0.0398799
0.512697
0.395906
-0.110298
-0.196896
0.271931
0.563433
0.248351
-0.134848
0.0373086
0.486216
0.49981
0.0790817
-0.07991
0.282324
0.586477
0.354506
-0.0260262
0.0625445
0.479774
0.56299
0.189148
-0.0358909
0.24929
0.593839
0.453674
0.0542238
0.0296993
0.418841
0.60644
0.298256
-0.0139872
0.165543
0.553411
0.531551
0.122174
-0.0381688
0.303689
0.612243
0.404664
0.0173656
0.0674946
0.465086
0.558714
0.181598
-0.0747581
0.202332
0.595139
0.512031
0.101109
0.00671485
0.355938
0.553254
0.251105
-0.0567566
0.149616
0.563488
0.56336
0.174907
0.00612874
0.30407
0.565859
0.359762
0.0376411
0.00755421
0.471154
0.32953
-0.22235
-0.316898
0.197797
0.498187
0.0893939
-0.38793
-0.174119
0.387422
0.390285
-0.1759
-0.401861
0.0768361
0.491689
0.173679
-0.366026
-0.259479
0.324516
0.45098
-0.081947
-0.419807
-0.0208781
0.481061
0.286568
-0.294877
-0.338719
0.224524
0.499457
0.0492802
-0.40962
-0.14656
0.426923
0.407767
-0.173446
-0.400839
0.0818369
0.508104
0.204655
-0.336038
-0.243762
0.335466
0.473705
-0.05609
-0.419744
-0.0419454
0.492534
0.358886
-0.2179
-0.322412
0.19629
0.483304
0.0663924
-0.370053
-0.101836
0.465606
0.447942
-0.126962
-0.361911
0.0971275
0.49427
0.181519
-0.33425
0.383473
0.598061
0.531789
0.255219
0.200811
0.465311
0.616316
0.36858
0.0807244
0.209793
0.555908
0.548561
0.171009
0.0144448
0.331716
0.61125
0.388822
0.0080215
0.0767726
0.486864
0.576742
0.193415
-0.0554713
0.22737
0.590733
0.452002
0.0295238
-0.00470447
0.404188
0.604813
0.27665
-0.0598194
0.128533
0.545096
0.53657
0.124228
-0.03528
0.309794
0.60777
0.381018
-0.00940811
0.0615635
0.484507
0.593876
0.22626
-0.0336097
0.217915
0.574218
0.461068
0.0505923
0.000499862
0.400476
0.618965
0.317079
-0.0163103
0.144478
0.532079
0.513187
0.0981732
-0.0550009
0.31051
0.618193
0.370276
-0.0513485
0.501694
0.347957
0.409173
0.578965
0.596309
0.464068
0.408055
0.498805
0.577826
0.540424
0.474455
0.483755
0.53509
0.545325
0.515972
0.503242
0.51783
0.527879
0.522574
0.519999
0.523867
0.521153
0.514353
0.518389
0.529276
0.527177
0.513655
0.511563
0.526008
0.533531
0.521688
0.50964
0.514042
0.524173
0.524037
0.517179
0.516482
0.523435
0.525938
0.516857
0.507633
0.509729
0.515477
0.517562
0.522137
0.526115
0.520095
0.510125
0.502436
0.497534
0.503827
0.518466
0.524635
0.520457
0.51208
0.504686
0.506946
0.507435
0.491746
0.487769
0.520317
0.550675
0.525978
0.470546
0.23575
-0.222581
-0.0757437
0.440677
0.506821
0.040278
-0.189135
0.191796
0.580655
0.379725
-0.0628891
-0.0306094
0.424012
0.584854
0.216874
-0.0761199
0.175609
0.571101
0.48863
0.0722899
-0.00841842
0.375107
0.614744
0.335511
-0.0132245
0.123701
0.52868
0.560024
0.169538
-0.0230489
0.288238
0.611782
0.434235
0.0336943
0.042429
0.445239
0.601574
0.262974
-0.0313295
0.187856
0.573842
0.512203
0.094306
-0.0220009
0.34714
0.614673
0.3576
-0.00542681
0.11041
0.51979
0.568356
0.17352
-0.042795
0.261561
0.601631
0.442406
0.057506
0.0765078
0.469382
0.607231
0.273924
0.00663824
0.230452
0.58263
0.19225
-0.320564
-0.178051
0.381532
0.442726
-0.108797
-0.39307
0.046388
0.503471
0.238306
-0.332219
-0.298868
0.284707
0.485143
-0.0195447
-0.423616
-0.0818611
0.460965
0.339014
-0.252632
-0.370402
0.173714
0.514425
0.110708
-0.394286
-0.197766
0.388255
0.43359
-0.13371
-0.414515
0.0362956
0.506118
0.252383
-0.321782
-0.305933
0.274227
0.496814
0.00784614
-0.415684
-0.0994503
0.45819
0.375144
-0.217699
-0.382423
0.139133
0.513892
0.145756
-0.371053
-0.20439
0.38314
0.453182
-0.111639
-0.417372
0.0214143
0.507673
0.272197
-0.297488
-0.280764
0.295545
0.500028
-0.00469503
-0.414404
-0.0727386
0.471605
0.462129
0.20553
0.27312
0.562687
0.591241
0.277178
0.104722
0.352548
0.619595
0.450797
0.0875482
0.103182
0.475931
0.600266
0.25508
-0.0229977
0.20921
0.5815
0.491052
0.0709318
-0.0139126
0.372214
0.613295
0.32099
-0.0436204
0.0979542
0.521069
0.55355
0.143139
-0.0601317
0.265304
0.60418
0.421108
0.0082695
0.021563
0.440551
0.600746
0.248198
-0.0579994
0.167092
0.566912
0.50934
0.0877076
-0.0272694
0.347367
0.613968
0.345606
-0.0316193
0.082856
0.505616
0.561289
0.161294
-0.054557
0.26049
0.604957
0.422672
-0.00678182
-0.00159318
0.429445
0.586945
0.203052
-0.115232
0.144128
0.563523
0.441379
0.598514
0.556094
0.419728
0.419293
0.540435
0.587574
0.509143
0.448635
0.492355
0.555842
0.547358
0.501711
0.494674
0.522612
0.535078
0.523015
0.514827
0.518739
0.520488
0.518368
0.521987
0.526875
0.52125
0.511903
0.515244
0.527522
0.528971
0.517123
0.511117
0.520082
0.52892
0.523233
0.512116
0.513083
0.524428
0.528524
0.519913
0.512297
0.515693
0.522607
0.521474
0.5144
0.514049
0.523392
0.528881
0.51998
0.506392
0.506558
0.520319
0.527433
0.519966
0.512543
0.51665
0.523741
0.512479
0.485054
0.484853
0.527289
0.551125
0.511354
0.467219
0.496597
0.55997
0.0749128
0.535339
0.382706
-0.111122
-0.136232
0.350205
0.578582
0.208666
-0.143425
0.0910593
0.537863
0.498228
0.0590555
-0.0661699
0.322258
0.610373
0.354207
-0.025456
0.0779795
0.500003
0.575731
0.193048
-0.03657
0.251015
0.60086
0.461581
0.0561494
0.0271437
0.420686
0.61425
0.301337
-0.0230574
0.154363
0.552252
0.539683
0.135868
-0.0194495
0.320564
0.617528
0.400131
0.0125213
0.0695874
0.480479
0.592305
0.228083
-0.0318249
0.225646
0.589281
0.481946
0.0802266
0.0296782
0.413523
0.617053
0.311436
-0.0134764
0.162645
0.555313
0.544768
0.168617
0.0438726
0.373134
0.629411
0.412562
0.0896991
0.0209323
0.504159
0.308091
-0.272746
-0.315278
0.244524
0.503771
0.0400971
-0.406443
-0.121905
0.435997
0.370481
-0.217217
-0.389806
0.127928
0.511623
0.15047
-0.380408
-0.236938