# vtk DataFile Version 3.0
PFC-RG simulation results
ASCII
DATASET STRUCTURED_POINTS
DIMENSIONS 64 64 1
ORIGIN 0 0 0
SPACING 1 1 1
POINT_DATA 4096
SCALARS psi double
LOOKUP_TABLE default
0.345158
0.317081
0.255041
0.256076
0.321893
0.355646
0.319786
0.292148
0.333411
0.389058
0.38417
0.34444
0.346865
0.392273
0.413006
0.386489
0.360774
0.372911
0.398169
0.398984
0.380145
0.372216
0.383729
0.395574
0.395391
0.390416
0.388416
0.384288
0.376448
0.379352
0.396612
0.402086
0.38555
0.380887
0.39599
0.377041
0.310006
0.281714
0.350064
0.430384
0.42004
0.347322
0.283448
0.227179
0.183006
0.208175
0.301847
0.387149
0.42103
0.398765
0.306227
0.179954
0.121838
0.172982
0.267147
0.337467
0.366731
0.342185
0.27541
0.232157
0.242498
0.256608
0.253336
0.277861
0.318528
0.30287
0.276881
0.302873
0.333025
0.29336
0.232718
0.252845
0.323111
0.31516
0.224063
0.192235
0.273712
0.335386
0.279495
0.206665
0.236443
0.307929
0.295703
0.225253
0.214681
0.270407
0.297266
0.272002
0.263759
0.29436
0.309412
0.289004
0.283757
0.323618
0.360418
0.336976
0.278024
0.255586
0.275513
0.281573
0.274915
0.317167
0.387069
0.374676
0.275507
0.219817
0.246992
0.2617
0.250967
0.288422
0.329272
0.283116
0.226733
0.269748
0.33415
0.306756
0.24114
0.226967
0.242767
0.255562
0.291595
0.342394
0.354776
0.327668
0.29049
0.242386
0.209798
0.247307
0.255103
0.242037
0.273212
0.324431
0.303181
0.201482
0.153622
0.236631
0.313598
0.228062
0.0775205
0.089684
0.251544
0.301022
0.145827
0.0282803
0.135338
0.295087
0.259948
0.102833
0.0759416
0.200101
0.26668
0.190533
0.113429
0.14669
0.217898
0.221519
0.180613
0.184148
0.233424
0.244214
0.193957
0.163759
0.201933
0.254955
0.278553
0.291225
0.271997
0.173476
0.0831286
0.149371
0.316607
0.403298
0.411617
0.431428
0.361619
0.124371
-0.0387422
0.0970166
0.351065
0.449975
0.423192
0.395374
0.325965
0.193886
0.135213
0.21966
0.33124
0.366458
0.344255
0.303797
0.268366
0.26429
0.22923
0.223323
0.287532
0.334606
0.294416
0.223973
0.244162
0.353404
0.402312
0.311087
0.21254
0.27013
0.418571
0.436919
0.28748
0.194023
0.301576
0.449827
0.422173
0.276383
0.235475
0.340218
0.414827
0.346911
0.234985
0.223247
0.302378
0.34181
0.281811
0.211698
0.223134
0.276138
0.293583
0.292232
0.313305
0.325287
0.300382
0.26995
0.229174
0.15446
0.141962
0.279043
0.409416
0.359691
0.281857
0.35832
0.398287
0.213026
0.0596251
0.192126
0.377322
0.349857
0.278969
0.353565
0.39973
0.26787
0.14078
0.181766
0.268007
0.27204
0.268087
0.322775
0.364559
0.329049
0.253022
0.295506
0.341827
0.320349
0.281943
0.313857
0.393068
0.419089
0.379868
0.370117
0.425538
0.465503
0.442012
0.416305
0.441751
0.474762
0.458932
0.426815
0.436806
0.466366
0.452658
0.411254
0.412876
0.442667
0.41985
0.359577
0.359412
0.411427
0.403168
0.323177
0.282939
0.327562
0.389176
0.408316
0.370157
0.283812
0.2203
0.254112
0.323302
0.333571
0.360279
0.457462
0.411626
0.108581
-0.0938142
0.113087
0.42774
0.467959
0.403109
0.467196
0.419089
0.100225
-0.0971869
0.111453
0.396049
0.415953
0.325945
0.332204
0.312218
0.176431
0.118126
0.247872
0.379425
0.352261
0.263037
0.377122
0.36349
0.232304
0.197041
0.325765
0.397228
0.249619
0.0921657
0.201379
0.428613
0.387927
0.106151
0.0297837
0.303927
0.507157
0.316013
0.0321519
0.0975438
0.389854
0.441636
0.199498
0.0732998
0.238678
0.397331
0.323957
0.196419
0.2242
0.325873
0.343019
0.290912
0.268909
0.303232
0.336089
0.287596
0.168656
0.135588
0.27853
0.418953
0.385306
0.337228
0.423886
0.392229
0.0684511
-0.146007
0.100676
0.449593
0.469951
0.385812
0.479078
0.453668
0.10021
-0.13608
0.0843856
0.392451
0.412976
0.345985
0.412478
0.415605
0.227656
0.106425
0.21134
0.322948
0.278793
0.243203
0.384659
0.315395
0.135218
0.138513
0.325001
0.357769
0.0958854
-0.106609
0.0897986
0.406976
0.307789
-0.119904
-0.223702
0.182385
0.475191
0.192177
-0.222796
-0.122941
0.319359
0.415903
0.0620749
-0.152613
0.0758755
0.35272
0.294199
0.075049
0.0408841
0.200516
0.326752
0.29692
0.188654
0.154604
0.231168
0.279588
0.219658
0.213121
0.361719
0.412476
0.181121
0.000422272
0.187577
0.432999
0.369
0.260141
0.408022
0.469098
0.150248
-0.0916679
0.152599
0.470405
0.411834
0.270188
0.376675
0.435864
0.20803
0.0482951
0.220273
0.413749
0.363028
0.272656
0.312113
0.307025
0.187817
0.261089
0.34884
0.268469
0.164029
0.245483
0.423161
0.432056
0.237613
0.124833
0.300358
0.538958
0.466736
0.158648
0.0842071
0.377491
0.589515
0.385068
0.085293
0.160153
0.483665
0.553992
0.292026
0.120333
0.265056
0.462272
0.433044
0.255496
0.163602
0.239287
0.367513
0.371169
0.223859
0.132947
0.251859
0.403269
0.372802
0.303889
0.378335
0.35946
0.0432742
-0.176739
0.0857001
0.477625
0.533176
0.468117
0.569067
0.487067
-0.0120018
-0.342937
-0.0184682
0.482759
0.572298
0.470375
0.523614
0.469413
0.105259
-0.143918
0.0411975
0.331766
0.393448
0.369118
0.404569
0.35281
0.19996
0.325722
0.316052
0.261746
0.285039
0.389365
0.432
0.401984
0.414131
0.471001
0.48553
0.464565
0.474427
0.508648
0.515824
0.493197
0.480609
0.495537
0.515575
0.512024
0.486639
0.475455
0.498748
0.511311
0.462452
0.408951
0.436319
0.472751
0.39634
0.297654
0.338878
0.413969
0.328946
0.216512
0.310234
0.449431
0.348122
0.175847
0.245242
0.366454
0.238167
0.120027
0.313441
0.470461
0.253681
0.0693345
0.296816
0.501645
0.269925
0.0436873
0.26314
0.499931
0.303578
0.0711705
0.242241
0.462779
0.325787
0.125242
0.203797
0.336107
0.277792
0.215415
0.302028
0.363098
0.308342
0.332276
0.266276
0.2577
0.353503
0.369309
0.184787
0.0866965
0.309375
0.518288
0.32035
-0.0100701
0.0679478
0.458617
0.553285
0.199051
-0.0503895
0.195466
0.55314
0.46715
0.0741248
-0.0162652
0.327101
0.56
0.323423
0.0076854
0.107966
0.421058
0.429013
0.185291
0.147602
0.334221
0.378249
0.264886
0.274813
0.335288
0.179153
-0.00542288
0.140278
0.427743
0.481527
0.452774
0.558096
0.457116
-0.0490277
-0.361054
-0.00429504
0.509588
0.581097
0.480332
0.578324
0.511447
0.0024887
-0.358478
-0.0520913
0.460642
0.569623
0.447398
0.453803
0.432307
0.200182
0.0173893
0.112692
0.308198
0.387894
0.233296
0.214317
0.277214
0.381954
0.303175
-0.00894734
-0.130553
0.195938
0.471828
0.174017
-0.302223
-0.206564
0.332186
0.465889
-0.0275195
-0.377848
-0.0345683
0.466527
0.346417
-0.200406
-0.320002
0.165391
0.498609
0.188299
-0.238831
-0.111565
0.326829
0.391884
0.0985123
0.0216029
0.254344
0.364785
0.250266
0.207567
0.253163
0.168052
0.0872512
0.2591
0.443759
0.343815
0.245955
0.424936
0.483042
0.119563
-0.142071
0.147151
0.508209
0.426282
0.263261
0.426618
0.509562
0.147527
-0.144083
0.119716
0.489007
0.428474
0.236363
0.336307
0.474211
0.310689
0.0792095
0.110264
0.292167
0.369902
0.13687
0.23628
0.359454
0.428673
0.364992
0.170333
0.114613
0.365235
0.577404
0.378295
0.0402157
0.10147
0.481563
0.579817
0.233993
-0.013393
0.227158
0.578927
0.494573
0.1112
0.0277319
0.368388
0.60177
0.381392
0.0721238
0.14584
0.439688
0.471957
0.247046
0.169863
0.300046
0.332378
0.230314
0.236113
0.333035
0.332063
0.336504
0.4629
0.402271
-0.0094979
-0.247316
0.0883351
0.515352
0.515566
0.400701
0.528295
0.503464
0.0335496
-0.28931
0.0364402
0.504689
0.524969
0.397073
0.516404
0.514551
0.0775521
-0.257626
0.00202828
0.430824
0.466087
0.287597
0.286113
0.371095
0.311222
0.144259
0.330902
0.406537
0.349399
0.363209
0.447107
0.47773
0.46452
0.479222
0.510912
0.517495
0.506011
0.501554
0.507393
0.515637
0.518848
0.512322
0.503799
0.506967
0.51705
0.51603
0.504343
0.499231
0.502034
0.498433
0.484125
0.458196
0.417444
0.390618
0.396612
0.360941
0.24575
0.203219
0.334531
0.434899
0.344487
0.300166
0.44633
0.406186
-0.015402
-0.265822
0.073469
0.51152
0.521203
0.413652
0.541979
0.506168
0.0200133
-0.309964
0.0239375
0.507545
0.539263
0.414599
0.527103
0.50765
0.0556388
-0.270363
0.00819926
0.415315
0.403044
0.249816
0.345814
0.447777
0.279102
0.21297
0.415878
0.333435
0.0703188
0.123132
0.451789
0.516811
0.185032
-0.0327221
0.216385
0.563603
0.474583
0.0790011
-0.011849
0.350247
0.60534
0.352098
-0.0159459
0.077445
0.483456
0.565418
0.203186
-0.0325277
0.208787
0.533894
0.460087
0.140603
0.0554928
0.279681
0.44808
0.322425
0.109414
0.149985
0.395797
0.426759
0.122749
-0.0468631
0.216026
0.481613
0.370024
0.24266
0.422763
0.488016
0.122607
-0.135652
0.160932
0.515442
0.414884
0.243435
0.417617
0.514964
0.157732
-0.132113
0.132067
0.485946
0.408291
0.246139
0.394447
0.471388
0.163317
-0.0435638
0.206091
0.435764
0.265254
0.253524
0.464862
0.274467
-0.110436
-0.0518922
0.374861
0.441875
-0.0367989
-0.360226
-0.0252784
0.461305
0.339218
-0.219743
-0.352634
0.154673
0.514118
0.159917
-0.355259
-0.223329
0.34645
0.462572
-0.0425177
-0.369187
-0.0239865
0.44409
0.355274
-0.0788801
-0.180323
0.159386
0.428109
0.303808
0.0629857
0.117621
0.388045
0.392483
0.0168302
-0.195122
0.119812
0.521692
0.552558
0.483568
0.591256
0.483953
-0.05751
-0.389689
-0.0175172
0.519195
0.600285
0.503416
0.601805
0.51752
-0.0215584
-0.388106
-0.0508494
0.483224
0.585221
0.494397
0.572998
0.506067
0.0877734
-0.13899
0.144124
0.39558
0.241486
0.249814
0.482358
0.352315
0.0578937
0.123114
0.470364
0.536898
0.20028
-0.02126
0.223638
0.569444
0.48382
0.0912281
-0.00180768
0.355768
0.609517
0.359829
-0.00349076
0.0902494
0.491793
0.571672
0.21579
-0.0119113
0.228894
0.551437
0.486683
0.175993
0.0763988
0.282396
0.473535
0.397953
0.184352
0.14863
0.336111
0.416298
0.221957
0.106409
0.320465
0.468991
0.239981
0.0657328
0.304479
0.503283
0.265711
0.0535811
0.290106
0.513326
0.28332
0.0572574
0.284019
0.512381
0.287903
0.0538479
0.268311
0.503773
0.305997
0.0768641
0.249743
0.454001
0.306022
0.159363
0.314045
0.407816
0.226268
0.232745
0.412938
0.422056
0.343004
0.375417
0.468895
0.494077
0.478602
0.490952
0.512198
0.51185
0.506561
0.511184
0.515601
0.514709
0.514069
0.514365
0.514341
0.515266
0.513748
0.508727
0.510609
0.518163
0.509221
0.488538
0.493348
0.50518
0.456868
0.386432
0.402847
0.442696
0.348421
0.215896
0.270206
0.421105
0.435958
0.423713
0.521204
0.408255
-0.0771802
-0.355535
0.0123281
0.51912
0.590883
0.502253
0.601961
0.507656
-0.0377411
-0.395277
-0.03868
0.507173
0.602486
0.502456
0.590398
0.520505
0.016454
-0.354669
-0.0858239
0.395388
0.515979
0.432262
0.452762
0.427337
0.258855
0.221434
0.251552
0.337463
0.431325
0.380864
0.159571
0.0866139
0.353658
0.580634
0.369011
0.0148733
0.083
0.48032
0.579839
0.219423
-0.0356066
0.215219
0.578868
0.487445
0.0841844
-0.00361298
0.358086
0.603183
0.350484
0.00113712
0.100176
0.46778
0.513399
0.21819
0.112225
0.318758
0.413737
0.274376
0.232337
0.344953
0.349492
0.303168
0.413457
0.425394
0.101207
-0.111343
0.177186
0.510081
0.412432
0.253898
0.426765
0.510053
0.142658
-0.142
0.140502
0.51006
0.429186
0.252894
0.407739
0.510708
0.18241
-0.118219
0.0849461
0.4318
0.433487
0.278395
0.300919
0.380894
0.339469
0.222371
0.141522
0.236405
0.403822
0.318768
-0.0513257
-0.190175
0.179385
0.491214
0.18087
-0.322211
-0.22443
0.335086
0.471663
-0.0403811
-0.401335
-0.0452226
0.470472
0.340856
-0.229174
-0.350848
0.160757
0.504429
0.151651
-0.329327
-0.183827
0.338871
0.434072
0.063625
-0.0750082
0.21104
0.401768
0.301766
0.250985
0.290209
0.142212
-0.0284439
0.159145
0.478515
0.498026
0.41932
0.534822
0.484573
0.0104993
-0.300424
0.0385686
0.51547
0.540745
0.418419
0.538943
0.517183
0.0431446
-0.301678
0.00353083
0.48579
0.543719
0.412768
0.484392
0.508132
0.211643
-0.0573743
0.0526788
0.321633
0.415403
0.229057
0.194234
0.275263
0.415635
0.396988
0.164577
0.0712515
0.339323
0.574956
0.361474
0.00317771
0.0751386
0.477918
0.575235
0.208109
-0.0492088
0.205805
0.574006
0.482049
0.0749704
-0.014524
0.349007
0.594961
0.339472
-0.0133697
0.0826243
0.444314
0.485119
0.196462
0.0983659
0.291925
0.371105
0.26839
0.29059
0.360352
0.170473
-0.0474011
0.135567
0.475948
0.504432
0.414223
0.520048
0.475567
0.0134035
-0.291369
0.0454481
0.514901
0.532102
0.406196
0.53032
0.51705
0.0512725
-0.29085
0.00778386
0.477686
0.529322
0.403968
0.479972
0.493282
0.186321
-0.0695813
0.0661575
0.337823
0.409734
0.226853
0.326824
0.348951
0.341913
0.396033
0.452194
0.458894
0.470241
0.505586
0.51569
0.498066
0.496953
0.515756
0.521685
0.509537
0.502388
0.509568
0.519313
0.519328
0.50794
0.498015
0.506639
0.521482
0.50699
0.47271
0.469274
0.475208
0.415962
0.343608
0.374068
0.411526
0.284904
0.157611
0.283914
0.45864
0.367589
0.229273
0.348944
0.423192
0.129479
-0.103731
0.160748
0.497314
0.414714
0.262429
0.431804
0.508151
0.134084
-0.153979
0.130921
0.507755
0.435688
0.263381
0.409147
0.495043
0.164815
-0.11554
0.0947447
0.406658
0.370381
0.229348
0.297924
0.38392
0.297285
0.231429
0.412658
0.335996
0.127877
0.177196
0.448656
0.507402
0.232514
0.0466173
0.263862
0.571068
0.483885
0.113136
0.0273086
0.369174
0.609372
0.367054
0.0187608
0.111384
0.496122
0.567653
0.224737
0.0104385
0.239135
0.53672
0.468452
0.171211
0.0635543
0.243548
0.439172
0.390042
0.153002
0.0553238
0.24726
0.431882
0.369974
0.316385
0.456493
0.411407
-0.040091
-0.330218
0.0156282
0.515544
0.585522
0.490731
0.588146
0.503218
-0.0281159
-0.380267
-0.03156
0.500894
0.589574
0.491923
0.580829
0.509977
0.0205288
-0.322565
-0.0511375
0.388799
0.463951
0.366759
0.397007
0.375175
0.18322
0.253518
0.431758
0.319918
0.0242251
0.0346911
0.358456
0.422619
0.0202444
-0.26784
0.0289795
0.467454
0.340168
-0.194638
-0.317929
0.17097
0.511506
0.163007
-0.335165
-0.204401
0.345763
0.453084
-0.0360828
-0.350525
-0.0257877
0.413364
0.336914
-0.050182
-0.140313
0.15171
0.394267
0.318194
0.111138
0.0974126
0.283695
0.338824
0.151497
0.0854903
0.326598
0.464323
0.22658
0.0520362
0.29104
0.494387
0.261154
0.0447998
0.275305
0.504773
0.290904
0.0729194
0.290705
0.504614
0.276879
0.0496415
0.265483
0.496187
0.302804
0.0822541
0.250884
0.454171
0.319989
0.156704
0.262366
0.350493
0.200023
0.239024
0.390598
0.365217
0.16178
0.152348
0.395763
0.472915
0.199575
-0.00515703
0.216416
0.542862
0.457166
0.0770829
-0.00701645
0.345201
0.587835
0.336151
-0.0222068
0.0705987
0.46517
0.542871
0.190514
-0.0409565
0.181521
0.482526
0.420296
0.155868
0.107645
0.293174
0.404157
0.314722
0.204703
0.260109
0.398683
0.341582
0.0592513
-0.0584651
0.203366
0.483932
0.470452
0.424734
0.552193
0.460373
-0.0533275
-0.368538
-0.00817869
0.508067
0.581593
0.485809
0.585862
0.510496
-0.00879911
-0.363498
-0.0405309
0.468141
0.554493
0.442017
0.495596
0.467823
0.149667
-0.0554555
0.145931
0.382616
0.310054
0.174126
0.298789
0.385426
0.332212
0.295952
0.371148
0.446709
0.436433
0.414014
0.45173
0.502774
0.505859
0.481871
0.480379
0.505138
0.520597
0.505377
0.482307
0.486028
0.509362
0.512329
0.486622
0.469465
0.477017
0.47282
0.439819
0.418995
0.424585
0.410004
0.356126
0.302933
0.292526
0.345516
0.425437
0.395008
0.212531
0.118472
0.270937
0.406045
0.31039
0.254696
0.431469
0.46226
0.110371
-0.116727
0.175387
0.505872
0.395899
0.225805
0.399974
0.505354
0.167046
-0.120167
0.119711
0.464384
0.410288
0.236197
0.315426
0.388755
0.19061
0.0383888
0.215105
0.430608
0.365261
0.160955
0.236215
0.341268
0.369307
0.29713
0.195148
0.208399
0.37874
0.493932
0.348328
0.12769
0.195318
0.488432
0.551234
0.259834
0.0602287
0.271786
0.567302
0.484626
0.1542
0.0849798
0.367673
0.55803
0.383626
0.130861
0.158869
0.370892
0.427945
0.282008
0.181973
0.23457
0.290549
0.268283
0.273404
0.331699
0.342169
0.341293
0.395881
0.324385
0.035663
-0.108593
0.159398
0.473935
0.457961
0.383556
0.523127
0.494558
0.0396521
-0.272359
0.0374451
0.489761
0.514902
0.379197
0.465404
0.478812
0.141582
-0.130812
0.0445192
0.344448
0.367875
0.269491
0.31542
0.39539
0.325022
0.249689
0.255769
0.292659
0.341562
0.294807
0.129341
0.0641672
0.248514
0.406328
0.205783
-0.117953
-0.0462138
0.346125
0.426382
0.0197087
-0.2587
0.0330176
0.441435
0.325921
-0.130984
-0.225093
0.162558
0.417157
0.184518
-0.118194
-0.0272014
0.267498
0.318049
0.141423
0.0948911
0.240036
0.303779
0.195171
0.13065
0.213822
0.299285
0.338384
0.398116
0.3498
0.0902068
-0.0736056
0.139814
0.43475
0.443762
0.378775
0.497724
0.471735
0.057604
-0.232029
0.0498555
0.471344
0.507525
0.38995
0.457417
0.454294
0.154272
-0.0687456
0.108209
0.395056
0.43347
0.319726
0.273938
0.28466
0.272964
0.339069
0.293767
0.257528
0.31178
0.359934
0.276734
0.188504
0.284476
0.424108
0.328207
0.106999
0.136398
0.403277
0.472147
0.201238
0.00690822
0.201871
0.480594
0.402639
0.0936003
0.0330863
0.290382
0.441117
0.269464
0.0886373
0.187089
0.374072
0.349499
0.204841
0.218535
0.362472
0.383751
0.257143
0.196844
0.253089
0.261722
0.223421
0.300867
0.415272
0.36484
0.272747
0.344075
0.379802
0.155646
-0.0227957
0.174812
0.44023
0.385553
0.260221
0.378076
0.446955
0.196156
-0.0103968
0.156025
0.390751
0.366148
0.275556
0.34308
0.407541
0.315806
0.20335
0.192476
0.229561
0.273653
0.338447
0.296437
0.229075
0.259434
0.367288
0.397992
0.333014
0.318466
0.398603
0.45003
0.414587
0.387309
0.430274
0.474399
0.456406
0.421547
0.43365
0.469077
0.467096
0.435649
0.431934
0.456073
0.446234
0.396484
0.384494
0.42962
0.436127
0.355677
0.292655
0.340059
0.409893
0.378966
0.309013
0.333927
0.395547
0.326957
0.18977
0.213112
0.370666
0.432114
0.405622
0.43261
0.37932
0.0970619
-0.11717
0.0677104
0.40867
0.510117
0.473636
0.50754
0.410837
0.0677934
-0.135667
0.0669362
0.366491
0.438279
0.387548
0.367103
0.302264
0.184508
0.160381
0.238611
0.287456
0.295697
0.288781
0.301704
0.245496
0.219094
0.28793
0.358886
0.325324
0.235368
0.226884
0.331393
0.416252
0.357217
0.231842
0.235959
0.386486
0.464288
0.342907
0.202027
0.256152
0.417568
0.439477
0.29953
0.20825
0.271761
0.362965
0.34361
0.249198
0.200426
0.236262
0.290814
0.285254
0.226369
0.211313
0.297407
0.389542
0.350852
0.225739
0.189274
0.24504
0.243903
0.213211
0.290018
0.379291
0.309501
0.212353
0.286717
0.378726
0.287869
0.197534
0.297088
0.375646
0.26091
0.177522
0.288335
0.384517
0.311758
0.223576
0.227693
0.226455
0.202501
0.257401
0.350778
0.347159
0.276246
0.270783
0.33148
0.307433
0.243475
0.238335
0.290888
0.298094
0.213614
0.14239
0.197645
0.299597
0.265159
0.113106
0.0760036
0.225648
0.32237
0.193658
0.0312099
0.085587
0.255735
0.262878
0.107262
0.0422025
0.149206
0.240415
0.19161
0.114117
0.135025
0.210507
0.237411
0.201718
0.156035
0.145988
0.188552
0.258569
0.296806
0.282481
0.258679
0.228056
0.148123
0.0861814
0.1599
0.309746
0.389815
0.419549
0.451383
0.357069
0.0979821
-0.0435727
0.121764
0.362526
0.432478
0.414371
0.417106
0.350373
0.197972
0.13214
0.210778
0.292087
0.310864
0.336175
0.362759
0.315926
0.232283
0.28751
0.334442
0.337875
0.292365
0.25711
0.283832
0.332704
0.318743
0.253336
0.243318
0.310176
0.336418
0.265343
0.212166
0.267149
0.331079
0.286838
0.206024
0.22121
0.293854
0.290069
0.219893
0.210311
0.27694
0.309662
0.274241
0.258598
0.303194
0.33923
0.325085
0.306048
0.30857
0.295223
0.257139
0.248872
0.299071
0.361002
0.380676
0.346488
0.279
0.23399
0.247158
0.264688
0.247387
0.274801
0.367478
0.362547
0.199502
0.100288
0.214479
0.363731
0.363211
0.293997
0.276829
0.267425
0.227478
0.237938
0.319588
0.368407
0.337886
0.293475
0.275223
0.258471
0.238587
0.289566
0.284955
0.301898
0.304593
0.280707
0.279407
0.329116
0.371147
0.349489
0.312195
0.335381
0.394055
0.404811
0.363686
0.344927
0.377235
0.409079
0.400472
0.377184
0.375982
0.390468
0.396886
0.393401
0.389042
0.383498
0.377885
0.383136
0.396465
0.394901
0.375528
0.372091
0.401946
0.425187
0.397899
0.341916
0.322552
0.356913
0.392043
0.385087
0.36157
0.372931
0.39379
0.326812
0.177601
0.117515
0.235037
0.373454
0.384699
0.34609
0.356493
0.341731
0.230817
0.127344
0.150354
0.252569
0.324556
0.348733
0.349718
0.320615
0.266263
0.226303
0.22981
0.266722
0.299087
0.270432
0.243169
0.264345
0.296589
0.287778
0.257871
0.264412
0.301104
0.308799
0.279197
0.268673
0.300658
0.326176
0.307716
0.282621
0.298995
0.332404
0.326302
0.29058
0.286807
0.31926
0.323627
0.281069
0.254302
0.272534
0.275719
0.232821
0.211215
0.250111
0.272223
0.22431
0.19631
0.272494
0.365643
0.339423
0.231842
0.193311
0.244536
0.27054
0.237584
0.248112
0.337687
0.377697
0.28318
0.180128
0.215922
0.332127
0.384525
0.357144
0.320783
0.288928
0.236658
0.198936
0.233918
0.314069
0.355314
0.328224
0.271143
0.232546
0.231019
0.251255
0.277671
0.310587
0.332804
0.268376
0.261334
0.275471
0.300436
0.300855
0.270069
0.243347
0.245895
0.260111
0.257718
0.238862
0.223258
0.220362
0.226018
0.235341
0.23904
0.2214
0.188045
0.177594
0.206466
0.222779
0.177048
0.122242
0.149358
0.220638
0.200534
0.0923863
0.0724496
0.196547
0.263718
0.137291
0.00606179
0.0980116
0.300103
0.325436
0.165985
0.0831062
0.174529
0.249763
0.176503
0.0934997
0.167375
0.32698
0.386235
0.318655
0.251324
0.251861
0.266171
0.24298
0.219013
0.249775
0.315608
0.356806
0.354649
0.327145
0.291575
0.256417
0.231932
0.239008
0.281266
0.320315
0.322825
0.306031
0.297279
0.29222
0.302368
0.295484
0.294676
0.305328
0.30613
0.286716
0.271507
0.285652
0.31084
0.305844
0.27035
0.252975
0.281315
0.315497
0.3005
0.247924
0.226714
0.26648
0.308605
0.285129
0.222973
0.219447
0.305097
0.379413
0.337953
0.240265
0.250874
0.386676
0.45188
0.329517
0.18973
0.241349
0.406275
0.440772
0.314263
0.237847
0.320716
0.415635
0.361327
0.219974
0.175436
0.278708
0.392289
0.382543
0.282849
0.22027
0.23419
0.252827
0.242096
0.256553
0.319063
0.365207
0.336727
0.263283
0.224114
0.246475
0.286312
0.309347
0.321975
0.323336
0.298776
0.262014
0.250483
0.308083
0.307821
0.283582
0.267754
0.284595
0.309854
0.308447
0.293961
0.305411
0.335608
0.338656
0.312017
0.309109
0.348333
0.371175
0.335236
0.296234
0.327798
0.393911
0.39564
0.335917
0.32168
0.384461
0.430362
0.40748
0.385742
0.416633
0.447989
0.438681
0.4311
0.459155
0.479472
0.447893
0.408129
0.423048
0.462213
0.449588
0.402325
0.409391
0.461404
0.443157
0.334659
0.270665
0.321303
0.37148
0.322118
0.256382
0.282052
0.347027
0.34473
0.285798
0.253873
0.266662
0.267971
0.23893
0.235782
0.286873
0.335497
0.329582
0.292134
0.26843
0.26211
0.256354
0.258805
0.294894
0.283878
0.268186
0.26067
0.272175
0.286379
0.283457
0.275284
0.282365
0.291917
0.281507
0.269522
0.289023
0.318533
0.303464
0.25615
0.259001
0.328131
0.355397
0.274374
0.204604
0.274351
0.364651
0.273297
0.101983
0.144366
0.362534
0.383871
0.131548
0.00788706
0.246461
0.497419
0.368641
0.068034
0.0745105
0.362505
0.456409
0.214972
0.0431353
0.209856
0.43718
0.39385
0.206639
0.180388
0.302666
0.349786
0.288263
0.270205
0.336946
0.370652
0.305203
0.223958
0.22239
0.273964
0.300326
0.296808
0.301992
0.309193
0.28834
0.253248
0.246448
0.272933
0.296554
0.298741
0.273672
0.27151
0.279732
0.289523
0.289789
0.277423
0.2664
0.271327
0.279144
0.264618
0.239183
0.243376
0.275581
0.278868
0.231498
0.199784
0.243427
0.300759
0.253922
0.125006
0.0985849
0.243851
0.32693
0.133696
-0.105833
0.00452227
0.336957
0.339495
-0.0623539
-0.259947
0.0853228
0.45423
0.269098
-0.1719
-0.164495
0.272915
0.445176
0.102367
-0.19786
-0.00852733
0.354503
0.389875
0.162639
0.0809557
0.234263
0.357429
0.302996
0.210453
0.229824
0.309395
0.319717
0.264215
0.2508
0.305695
0.346394
0.322853
0.275941
0.256507
0.262298
0.27027
0.280743
0.29999
0.31356
0.306331
0.274233
0.2799
0.294876
0.309307
0.30308
0.281201
0.276238
0.29737
0.307267
0.282788
0.263902
0.289341
0.318468
0.292251
0.244473
0.258038
0.321877
0.332718
0.252221
0.179798
0.232276
0.376492
0.42773
0.285729
0.140175
0.251101
0.506164
0.50978
0.213704
0.0626533
0.309152
0.576213
0.438008
0.110061
0.111767
0.437362
0.577919
0.335154
0.0964161
0.195614
0.439851
0.472289
0.29437
0.181837
0.258164
0.371764
0.351796
0.234693
0.185792
0.25809
0.334386
0.32195
0.276237
0.27895
0.308762
0.300799
0.260315
0.247246
0.278624
0.310832
0.311148
0.293714
0.283363
0.2812
0.292641
0.288481
0.287877
0.293187
0.288253
0.277062
0.285212
0.308766
0.309444
0.285676
0.289012
0.32928
0.337864
0.289485
0.270714
0.332812
0.379262
0.328121
0.273365
0.325113
0.410745
0.414231
0.383816
0.416878
0.474809
0.478726
0.45795
0.474375
0.509357
0.513396
0.491747
0.482488
0.495854
0.509346
0.502928
0.483852
0.480473
0.504183
0.514874
0.473465
0.424483
0.429377
0.440046
0.379347
0.30871
0.330896
0.383563
0.339936
0.245456
0.241468
0.318605
0.344041
0.283914
0.233854
0.250936
0.284881
0.285539
0.27712
0.293065
0.312385
0.300909
0.270086
0.257996
0.272228
0.300152
0.287162
0.275753
0.273605
0.273081
0.274717
0.286336
0.294379
0.278509
0.260908
0.282156
0.316174
0.294124
0.23974
0.259316
0.340753
0.330141
0.214071
0.203509
0.356155
0.392708
0.172176
0.0307837
0.24683
0.497343
0.345286
-0.00188365
0.0142846
0.398531
0.566942
0.259967
-0.040656
0.138969
0.522747
0.515051
0.129636
-0.0356371
0.267438
0.559539
0.399615
0.0694956
0.0847448
0.366948
0.443799
0.254116
0.165086
0.298746
0.394708
0.313008
0.222334
0.25818
0.324961
0.305305
0.245423
0.244155
0.292865
0.317109
0.299212
0.279934
0.279419
0.279326
0.270878
0.271908
0.288933
0.286613
0.284386
0.280736
0.278485
0.279898
0.28572
0.290688
0.282587
0.263175
0.259936
0.284679
0.294971
0.254501
0.219718
0.267551
0.330999
0.264879
0.126749
0.158313
0.348128
0.329775
-0.00686934
-0.187165
0.121275
0.454758
0.22598
-0.274939
-0.272843
0.253137
0.490451
0.0603849
-0.36882
-0.121989
0.420571
0.417023
-0.120437
-0.353811
0.0673959
0.479276
0.270105
-0.179246
-0.153845
0.269636
0.440881
0.20598
0.0346515
0.181367
0.371697
0.346046
0.220533
0.206279
0.290189
0.330873
0.29637
0.26887
0.28949
0.312511
0.297308
0.267034
0.261413
0.278884
0.292822
0.295305
0.295259
0.272751
0.286726
0.292165
0.289315
0.290156
0.295294
0.292803
0.280881
0.276741
0.291226
0.305063
0.291652
0.263429
0.268023
0.31626
0.33866
0.27375
0.199285
0.26129
0.413561
0.4047
0.183687
0.0850972
0.32635
0.576522
0.424601
0.0708497
0.0636166
0.429226
0.598653
0.297862
-0.0074177
0.161571
0.541817
0.541376
0.166419
0.00385747
0.298709
0.583983
0.42959
0.100309
0.100598
0.390678
0.513101
0.327122
0.147072
0.198506
0.341767
0.365858
0.277628
0.222862
0.262822
0.322582
0.322936
0.282193
0.26472
0.281358
0.291171
0.279104
0.273644
0.289171
0.302755
0.295601
0.279455
0.277235
0.290745
0.291105
0.284359
0.287082
0.293005
0.285672
0.276618
0.290092
0.311565
0.303492
0.277389
0.284686
0.323427
0.333011
0.302553
0.294422
0.334199
0.372892
0.383777
0.399481
0.435155
0.46231
0.467352
0.475263
0.498847
0.516062
0.511788
0.50065
0.501464
0.512922
0.51971
0.51329
0.502836
0.503632
0.514818
0.519213
0.50951
0.499739
0.501558
0.500717
0.478162
0.449242
0.44057
0.430235
0.374278
0.298491
0.285084
0.334842
0.347699
0.28915
0.247959
0.278127
0.312583
0.29013
0.253895
0.261968
0.292624
0.299156
0.287566
0.286682
0.292392
0.285049
0.270397
0.290824
0.291629
0.28187
0.274129
0.282028
0.289517
0.278465
0.270916
0.291235
0.305329
0.274034
0.24639
0.288289
0.336709
0.284259
0.20238
0.258161
0.386154
0.337908
0.139996
0.134289
0.393779
0.508146
0.231683
-0.0425301
0.133535
0.518452
0.521606
0.132245
-0.0428829
0.276685
0.598378
0.421378
0.0224587
0.0250302
0.42235
0.591768
0.275351
-0.0240748
0.15389
0.513814
0.500472
0.174088
0.0614576
0.292156
0.456881
0.324467
0.163428
0.223948
0.356424
0.341384
0.244539
0.234854
0.295603
0.309726
0.274056
0.265822
0.292735
0.302475
0.284856
0.274063
0.280831
0.285572
0.282477
0.293282
0.288899
0.279164
0.275537
0.28548
0.290828
0.27796
0.272006
0.291652
0.296699
0.256651
0.235882
0.292329
0.331476
0.241384
0.142133
0.234235
0.392018
0.280104
-0.0340405
-0.0615947
0.294703
0.451528
0.0545978
-0.352507
-0.13064
0.400192
0.408968
-0.136204
-0.389333
0.0520397
0.502803
0.257165
-0.301036
-0.297731
0.258912
0.495669
0.0504256
-0.369953
-0.114836
0.40544
0.40602
-0.0445115
-0.205514
0.140514
0.438842
0.319532
0.0969539
0.140939
0.324418
0.356783
0.257619
0.225078
0.286803
0.322658
0.2961
0.274329
0.285981
0.293688
0.280155
0.270986
0.27993
0.290774
0.29304
0.283216
0.284636
0.283994
0.285099
0.29066
0.29077
0.280347
0.277984
0.294054
0.298336
0.27153
0.261393
0.305326
0.331297
0.264055
0.199962
0.283598
0.413336
0.34082
0.121406
0.118505
0.404754
0.551963
0.292328
0.00551832
0.154598
0.527528
0.538387
0.156498
-0.0244717
0.283794
0.601489
0.428908
0.0342272
0.0354901
0.429219
0.597201
0.280081
-0.0224983
0.154441
0.523147
0.519671
0.17904
0.0288452
0.247765
0.456917
0.374891
0.197392
0.194186
0.30912
0.343899
0.283499
0.250362
0.280835
0.306975
0.293748
0.275706
0.279355
0.288617
0.286866
0.282444
0.284579
0.287147
0.285501
0.277499
0.281629
0.287037
0.29022
0.290223
0.287983
0.284488
0.283874
0.289603
0.29565
0.294406
0.292269
0.299708
0.309281
0.307236
0.303531
0.320481
0.353009
0.373992
0.379698
0.395086
0.431781
0.472867
0.498974
0.506668
0.505104
0.505548
0.510885
0.515574
0.515586
0.513547
0.513652
0.514821
0.513682
0.512388
0.51483
0.517549
0.514139
0.505979
0.501332
0.502785
0.498208
0.471785
0.427764
0.390531
0.37509
0.367555
0.344664
0.310153
0.291222
0.295907
0.301107
0.290869
0.278259
0.277486
0.281183
0.279503
0.278517
0.285155
0.292815
0.293296
0.288098
0.281808
0.276809
0.285125
0.282248
0.284974
0.28706
0.284081
0.284196
0.290041
0.288437
0.27681
0.278064
0.299228
0.301733
0.265001
0.249619
0.307305
0.353254
0.27443
0.165881
0.239232
0.435737
0.424905
0.147739
0.0155171
0.283056
0.570794
0.417997
0.0424956
0.0343105
0.420095
0.600656
0.289347
-0.0283689
0.146232
0.540007
0.537551
0.147036
-0.01848
0.294072
0.59001
0.414269
0.0555215
0.0655278
0.396444
0.526331
0.299069
0.105946
0.209786
0.384084
0.362718
0.239426
0.224582
0.300642
0.324184
0.281434
0.261267
0.283313
0.295348
0.282479
0.275936
0.285328
0.29153
0.288027
0.284789
0.284487
0.294262
0.285368
0.283466
0.282552
0.276191
0.277501
0.291608
0.292457
0.268182
0.260057
0.293
0.304146
0.243142
0.202552
0.28369
0.36242
0.240841
0.0455525
0.115407
0.390059
0.374339
-0.0445123
-0.274255
0.0746387
0.473598
0.257679
-0.277066
-0.295636
0.246071
0.501714
0.0620737
-0.388607
-0.142714
0.41599
0.413391
-0.144168
-0.384978
0.0597156
0.490452
0.249786
-0.262771
-0.251515
0.23966
0.46899
0.189492
-0.0597202
0.102691
0.368901
0.360864
0.202907
0.189681
0.299949
0.335404
0.279269
0.257462
0.294711
0.312338
0.287807
0.26979
0.277313
0.284726
0.282794
0.286149
0.294851
0.290298
0.285649
0.286664
0.286365
0.276359
0.273005
0.289324
0.298398
0.276245
0.261076
0.293503
0.320191
0.272167
0.219681
0.279769
0.372066
0.305819
0.14713
0.182137
0.407543
0.446727
0.177966
0.020584
0.274516
0.568948
0.42082
0.0391777
0.0248415
0.41247
0.597098