# vtk DataFile Version 3.0
PFC-RG simulation results
ASCII
DATASET STRUCTURED_POINTS
DIMENSIONS 64 64 1
ORIGIN 0 0 0
SPACING 1 1 1
POINT_DATA 4096
SCALARS psi double
LOOKUP_TABLE default
0.484139
0.539829
0.507813
0.432259
0.465399
0.541372
0.530933
0.484932
0.50669
0.549186
0.525794
0.482663
0.522987
0.588721
0.545827
0.44701
0.477299
0.610381
0.602837
0.449807
0.417285
0.572906
0.638747
0.50471
0.422959
0.528399
0.621846
0.542229
0.434482
0.471999
0.578245
0.588596
0.517667
0.490211
0.517966
0.525972
0.496726
0.469725
0.466572
0.476945
0.511609
0.554662
0.4475
0.157684
0.0505365
0.323567
0.579921
0.534179
0.489157
0.612494
0.485908
-0.0441316
-0.324373
0.0705751
0.567058
0.604739
0.499066
0.58468
0.495565
0.0155994
-0.295992
-0.00645666
0.472594
0.618516
-0.0129407
0.0902041
0.35108
0.531612
0.425906
0.126748
0.0360233
0.316313
0.562135
0.380526
0.0396182
0.0689419
0.427066
0.549726
0.241886
-0.0174145
0.16804
0.491844
0.442916
0.137574
0.0754983
0.316143
0.443719
0.320193
0.225429
0.255825
0.250882
0.225914
0.335624
0.452456
0.324619
0.104032
0.170177
0.45137
0.472784
0.176535
0.0708737
0.371717
0.600047
0.362499
0.0395471
0.152428
0.441703
0.383501
0.192614
0.300598
0.457661
0.330551
0.226328
0.411163
0.481523
0.156548
-0.0565751
0.228407
0.512829
0.356483
0.17811
0.362931
0.511288
0.269001
0.0228273
0.166601
0.438983
0.446518
-0.34229
-0.251009
0.136546
0.44131
0.27067
-0.211314
-0.338441
0.105585
0.459394
0.160549
-0.333218
-0.248952
0.276171
0.41252
-0.0434471
-0.36368
-0.0603153
0.365196
0.248159
-0.181668
-0.23931
0.108928
0.288374
0.103196
-0.0721608
-0.0576031
-0.0228232
0.0106465
0.15726
0.231084
-0.013764
-0.294984
-0.134087
0.29504
0.331424
-0.0797766
-0.22945
0.18299
0.478654
0.10976
-0.357772
-0.161325
0.388765
0.54963
0.422777
0.446948
0.383826
-0.0343032
-0.296258
0.0390332
0.496307
0.534265
0.439063
0.551095
0.480721
-0.0235263
-0.345596
-0.00256084
0.506742
0.589264
0.441142
0.438874
0.453625
0.242661
-0.00182327
0.0391773
0.294194
0.511346
0.41543
0.0923385
0.00652881
0.328411
0.583167
0.357568
-0.00137079
0.077474
0.469222
0.55451
0.211305
-0.00211188
0.244866
0.547282
0.43036
0.107973
0.094386
0.37141
0.486146
0.316915
0.184679
0.222975
0.269444
0.285886
0.366773
0.387152
0.183055
-0.0117304
0.152231
0.502996
0.50879
0.126573
-0.0522412
0.266419
0.524827
0.242435
-0.10336
0.0911161
0.487579
0.491896
0.342871
0.461492
0.489779
0.0811081
-0.220137
0.0859597
0.516024
0.504563
0.369872
0.503233
0.507026
0.0694412
-0.232797
0.0782449
0.497667
0.465122
0.28016
0.364871
0.498898
0.369643
0.422573
0.508702
0.50903
0.448108
0.465011
0.523706
0.534283
0.520694
0.523707
0.522803
0.515268
0.522545
0.532394
0.521768
0.511024
0.527972
0.545092
0.526849
0.497157
0.514972
0.560854
0.550704
0.4851
0.478612
0.56488
0.591447
0.491773
0.431238
0.530289
0.613647
0.513714
0.390933
0.463138
0.625327
0.583177
0.313601
0.175431
0.390654
0.613642
0.519906
0.402524
0.535273
0.539685
0.132819
-0.143522
0.174121
0.57225
0.498133
0.326595
0.475112
0.518528
0.103536
-0.198996
0.11221
0.526197
0.483754
0.341838
0.489588
0.50203
0.0709567
-0.218677
0.0831786
0.487323
0.513721
0.269297
0.544016
0.370952
-0.00250188
0.0643642
0.47893
0.580742
0.221469
-0.0285381
0.213911
0.570255
0.488763
0.0933609
-0.00589035
0.343149
0.592861
0.3486
-0.00923705
0.0742747
0.465504
0.553826
0.205686
-0.0433201
0.177651
0.519242
0.464192
0.121591
0.00776747
0.258323
0.477528
0.395096
0.208185
0.16846
0.248003
0.268572
0.178734
0.16031
0.345324
0.491844
0.417535
0.403973
0.575503
0.486014
-0.0415932
-0.349128
0.030803
0.533996
0.566558
0.459846
0.584409
0.516204
-0.0214053
-0.368336
-0.00358801
0.513153
0.563892
0.466753
0.586088
0.506833
0.000867641
-0.263487
0.0959772
0.415334
0.25559
-0.054921
0.394764
0.20183
-0.309945
-0.242714
0.313538
0.451933
-0.0582259
-0.416364
-0.0622339
0.456494
0.335176
-0.237208
-0.368227
0.145283
0.496082
0.132954
-0.369857
-0.225394
0.330785
0.424285
-0.0784276
-0.385137
-0.037476
0.404596
0.270863
-0.195637
-0.293172
0.0716471
0.342825
0.192003
-0.107094
-0.201116
-0.0585558
0.122411
0.189299
0.23516
0.360777
0.332015
0.0400258
-0.0717321
0.24204
0.48283
0.285361
0.108668
0.332907
0.484032
0.180804
-0.0476147
0.238149
0.5252
0.342215
0.145532
0.357627
0.502374
0.18606
-0.0552992
0.218654
0.496203
0.34596
0.234487
0.450119
0.406347
-0.0963668
0.115817
0.508279
0.37907
-0.00843065
0.0488826
0.46985
0.571897
0.197001
-0.0608707
0.19934
0.574514
0.487599
0.0797461
-0.00868846
0.361727
0.610573
0.349913
-0.00239553
0.10955
0.502355
0.556381
0.201371
0.00879305
0.269001
0.559781
0.440089
0.12569
0.0925501
0.354566
0.518231
0.373801
0.121628
0.0425656
0.211081
0.436129
0.48402
0.439382
0.474231
0.359648
-0.0648057
-0.297555
0.0564822
0.526436
0.589445
0.51284
0.609796
0.492046
-0.066244
-0.401281
-0.0146497
0.529475
0.609796
0.519238
0.617633
0.509927
-0.0452982
-0.38849
-0.0271008
0.487131
0.570896
0.518974
0.627335
0.498457
0.0252491
0.467849
0.573194
0.541056
0.454268
0.475983
0.540897
0.539593
0.505715
0.505325
0.523058
0.523732
0.514963
0.516137
0.523852
0.524457
0.51758
0.51539
0.525742
0.533644
0.521433
0.504162
0.516114
0.547522
0.542593
0.499661
0.491912
0.545292
0.56896
0.519165
0.490857
0.527776
0.527594
0.468737
0.497933
0.571661
0.465805
0.301039
0.369571
0.465329
0.261098
0.075782
0.282653
0.508706
0.351368
0.18521
0.38281
0.51489
0.20789
-0.0351321
0.231063
0.519354
0.348567
0.145035
0.344486
0.514383
0.244751
0.00303706
0.235325
0.50839
0.361524
0.148715
0.286617
0.495414
0.454847
0.325964
0.164993
0.284861
0.515189
0.473002
0.142104
0.015425
0.328733
0.604216
0.384669
0.000482813
0.0620157
0.475627
0.584221
0.212538
-0.0543602
0.202296
0.576559
0.477343
0.0584852
-0.0242118
0.357934
0.60113
0.31643
-0.0504826
0.0796396
0.498308
0.53509
0.143168
-0.0400532
0.252857
0.531557
0.436954
0.248883
0.170329
0.0244461
-0.0989807
0.117933
0.481992
0.563426
0.503952
0.575311
0.464511
-0.0397375
-0.35013
0.00618989
0.51581
0.579898
0.479524
0.586155
0.514983
-0.0153735
-0.379717
-0.0376907
0.506393
0.604896
0.489325
0.564106
0.541824
0.109941
-0.301802
-0.16272
0.330187
0.617391
-0.0857061
-0.267014
0.023598
0.431349
0.348874
-0.176524
-0.369626
0.0962776
0.503231
0.193425
-0.352953
-0.265693
0.320803
0.476094
-0.0465183
-0.419918
-0.0559121
0.468461
0.325606
-0.256949
-0.359958
0.176009
0.500302
0.0984377
-0.389645
-0.189816
0.370012
0.388607
-0.149221
-0.371009
0.0460304
0.417394
0.259752
-0.0340047
-0.0998379
-0.102021
-0.0740915
0.168136
0.425197
0.394647
0.324688
0.481348
0.484865
0.0665501
-0.216557
0.0977717
0.511532
0.47253
0.322282
0.472415
0.520285
0.108534
-0.212412
0.0798059
0.511035
0.479663
0.281253
0.392397
0.529126
0.260963
-0.125336
-0.0948652
0.289532
0.504235
-0.0713803
-0.0811936
0.233038
0.557013
0.495737
0.114873
-0.0289284
0.304139
0.603527
0.390876
0.00305857
0.0625013
0.477634
0.589876
0.22441
-0.0360973
0.220181
0.586912
0.486674
0.0822664
0.0152887
0.390933
0.613755
0.331743
-0.00160062
0.146457
0.531653
0.529434
0.156168
0.027552
0.322861
0.530406
0.366621
0.187681
0.235626
0.326515
0.39759
0.497662
0.38757
-0.0258712
-0.22753
0.129501
0.536974
0.49975
0.367786
0.511427
0.516608
0.0619829
-0.265529
0.0537293
0.517999
0.523062
0.377289
0.50665
0.532778
0.0866722
-0.293908
-0.032105
0.477313
0.57962
0.378973
0.342239
0.481233
0.473411
0.30608
0.422856
0.503718
0.492935
0.494909
0.518619
0.518688
0.511208
0.517635
0.523783
0.521858
0.519592
0.518103
0.516518
0.520163
0.526445
0.523534
0.514178
0.514554
0.52583
0.530202
0.521086
0.513301
0.517363
0.528077
0.532397
0.519794
0.497975
0.50578
0.551184
0.548833
0.445743
0.380276
0.488191
0.600299
0.541291
0.499137
0.578427
0.428986
-0.0665146
-0.31609
0.0668605
0.540411
0.560308
0.450315
0.573029
0.522023
0.00633875
-0.348168
-0.00586406
0.512324
0.567403
0.442148
0.553011
0.533514
0.0541948
-0.314144
-0.0265557
0.45941
0.524811
0.381057
0.450528
0.577946
0.48926
0.444949
0.592493
0.361481
-0.0267094
0.0270409
0.456285
0.60091
0.249536
-0.0416921
0.18098
0.566947
0.507174
0.0906081
-0.0277303
0.340831
0.612707
0.353332
-0.0285789
0.0723213
0.494927
0.567166
0.175033
-0.0599147
0.229178
0.580362
0.441808
0.0349848
-0.010471
0.365354
0.577576
0.296535
-0.0623307
0.0353574
0.436725
0.511191
0.147151
-0.0486591
0.238592
0.504616
0.352297
0.198275
0.402796
0.512884
0.165058
-0.105791
0.175138
0.517979
0.398047
0.208966
0.392366
0.519031
0.176681
-0.119028
0.143753
0.504635
0.425074
0.260537
0.418751
0.485837
0.12957
-0.113589
0.153417
0.43284
0.329109
0.254319
0.501827
0.198078
-0.337052
-0.27931
0.295157
0.488486
-0.00252007
-0.410423
-0.0966261
0.449052
0.368509
-0.214667
-0.379963
0.136405
0.516193
0.154468
-0.375402
-0.231607
0.356954
0.455546
-0.0903369
-0.414686
-0.00907066
0.481563
0.289639
-0.273773
-0.332769
0.184152
0.465872
0.0952828
-0.326887
-0.13633
0.366506
0.37425
-0.167801
-0.446727
-0.0219251
0.525633
0.600875
0.497592
0.592798
0.507158
-0.0395919
-0.409966
-0.0522146
0.510501
0.614623
0.515464
0.609452
0.527276
-0.0212935
-0.402569
-0.0606883
0.489087
0.599714
0.525084
0.618066
0.500101
-0.0206047
-0.275277
0.0746895
0.340322
0.118984
0.122581
0.502107
0.404922
0.0481549
0.0773445
0.463553
0.58433
0.240042
-0.0349819
0.188673
0.566476
0.509672
0.106375
-0.00686542
0.35234
0.616323
0.365449
-0.00109709
0.100707
0.509473
0.576755
0.198894
-0.0231628
0.258985
0.598366
0.468316
0.0830259
0.0405086
0.392651
0.594578
0.356038
0.0652658
0.172117
0.503181
0.518323
0.136858
-0.0805917
0.205171
0.503186
0.331104
0.100077
0.294896
0.509341
0.273117
0.0231747
0.249604
0.514832
0.318003
0.0812633
0.289709
0.516318
0.287901
0.0470407
0.269343
0.508866
0.293247
0.063427
0.270926
0.480264
0.298076
0.179081
0.413281
0.460999
0.105672
0.19419
0.452631
0.548609
0.528226
0.532035
0.536613
0.50847
0.498893
0.523327
0.531168
0.512642
0.50722
0.522514
0.529142
0.518078
0.510355
0.518223
0.528738
0.525546
0.512539
0.508856
0.52185
0.532868
0.522085
0.503856
0.510006
0.53442
0.53471
0.512178
0.52008
0.550155
0.520682
0.443347
0.449686
0.532003
0.524074
0.482037
0.560676
0.482974
-0.00162533
-0.360863
-0.0454698
0.497297
0.608637
0.506773
0.595944
0.527509
-0.00843645
-0.398131
-0.0627993
0.499517
0.611071
0.511066
0.60488
0.533096
-0.0046202
-0.392832
-0.0733465
0.469207
0.600477
0.530358
0.599657
0.557653
0.276177
0.285577
0.16709
0.25564
0.494013
0.494492
0.156976
-0.0174639
0.287111
0.60132
0.401309
-0.00433842
0.0403199
0.466297
0.588811
0.211755
-0.0618791
0.202966
0.58341
0.473901
0.0462905
-0.024335
0.372799
0.609455
0.309485
-0.0573418
0.0845033
0.50899
0.546681
0.15035
-0.0404954
0.253944
0.518159
0.335234
0.0622395
0.12551
0.326281
0.407462
0.48041
0.457395
0.123612
-0.141598
0.113234
0.491552
0.444376
0.276105
0.428291
0.523932
0.159102
-0.1565
0.113577
0.509246
0.44064
0.247485
0.403335
0.52584
0.189383
-0.124043
0.119932
0.508728
0.457493
0.208979
0.244728
0.442367
0.471341
0.274512
-0.0346955
0.0112606
0.329256
0.340179
-0.115261
-0.349679
0.0688943
0.494593
0.214775
-0.341531
-0.274844
0.314398
0.48019
-0.0441868
-0.420889
-0.050342
0.476929
0.324088
-0.265021
-0.357562
0.19129
0.513217
0.100012
-0.396481
-0.195721
0.381924
0.424145
-0.129133
-0.405438
-4.05257e-05
0.425019
0.27113
-0.105451
-0.184196
-0.104751
-0.0718132
0.121461
0.433497
0.500774
0.431618
0.532734
0.504761
0.0461898
-0.301426
0.00523002
0.502309
0.551906
0.419208
0.536911
0.537642
0.0577655
-0.327018
-0.0253547
0.498995
0.574023
0.432078
0.525445
0.556793
0.141527
-0.301469
-0.188661
0.301365
0.587965
0.166937
0.135635
0.268608
0.481418
0.484749
0.184479
0.021039
0.301599
0.596929
0.406034
0.0192487
0.0661184
0.477518
0.591517
0.225416
-0.0341102
0.225494
0.590041
0.483772
0.0803205
0.0199957
0.39651
0.614918
0.332969
-0.00180306
0.139403
0.532383
0.55273
0.165591
-0.0231752
0.262249
0.56382
0.477191
0.223986
0.0912215
-0.0188589
-0.105585
0.0899946
0.442859
0.534558
0.467315
0.557092
0.51542
0.0458743
-0.308293
-0.00203154
0.498791
0.548716
0.410418
0.526643
0.538571
0.0753831
-0.300832
-0.00538486
0.497759
0.54389
0.383261
0.481905
0.539589
0.1686
-0.214078
-0.0678171
0.357877
0.52288
0.00456214
0.394642
0.577846
0.514682
0.488614
0.532955
0.536187
0.50932
0.51158
0.528895
0.529187
0.519923
0.515888
0.517186
0.52283
0.527698
0.521162
0.509428
0.513223
0.530407
0.531969
0.511998
0.502727
0.520189
0.535548
0.524624
0.504777
0.498231
0.508418
0.528411
0.524516
0.466666
0.425699
0.489978
0.54228
0.429718
0.321537
0.428226
0.48187
0.176268
-0.0971911
0.138233
0.501979
0.44387
0.26635
0.420404
0.52943
0.167485
-0.166702
0.0903293
0.503165
0.464429
0.284655
0.431938
0.52766
0.151932
-0.188369
0.0629129
0.483655
0.486976
0.331152
0.427132
0.488047
0.228238
-0.00301875
0.468131
0.45343
0.0500916
0.0194318
0.423841
0.582201
0.239466
-0.0433098
0.188684
0.569436
0.496774
0.0811052
-0.0240017
0.349942
0.61186
0.341553
-0.0368303
0.0774354
0.503194
0.56002
0.154302
-0.0702145
0.239216
0.585819
0.420406
0.00539198
-0.0203795
0.36962
0.581916
0.299867
-0.0900611
-0.0675539
0.32977
0.591885
0.498326
0.413813
0.558664
0.515296
0.00434237
-0.390081
-0.0816079
0.485463
0.616199
0.507889
0.594233
0.547463
0.0232523
-0.392206
-0.0841321
0.484203
0.609206
0.503238
0.593668
0.538689
0.0174256
-0.366613
-0.0498425
0.469321
0.556371
0.476748
0.587557
0.499391
-0.00197948
0.292997
0.53997
0.258425
-0.314691
-0.302431
0.270747
0.472823
-0.0187664
-0.414462
-0.0842621
0.45271
0.351026
-0.230221
-0.374574
0.148109
0.511943
0.138256
-0.381405
-0.221696
0.362556
0.439955
-0.111848
-0.414298
0.00696833
0.476358
0.254966
-0.299183
-0.329402
0.187595
0.456677
0.0889416
-0.367376
-0.268979
0.230884
0.432189
0.134871
-0.0559825
0.237755
0.511617
0.296479
0.0298144
0.234673
0.510357
0.312399
0.0320956
0.224106
0.50985
0.341705
0.0897101
0.277866
0.516011
0.288311
0.0125142
0.221225
0.505574
0.345037
0.134068
0.33199
0.499585
0.215033
-0.0151365
0.243433
0.454701
0.177717
0.497787
0.624974
0.394331
-0.00823523
0.038066
0.466705
0.591625
0.223561
-0.0498741
0.19502
0.572206
0.49772
0.0944945
-0.00268856
0.359954
0.611852
0.355586
-0.001286
0.108279
0.509081
0.563517
0.189598
-0.0142871
0.26949
0.58442
0.442652
0.0846211
0.0625611
0.385205
0.556916
0.344377
0.0863508
0.180096
0.497367
0.481461
-0.0265406
-0.374005
-0.0463804
0.489067
0.595647
0.485559
0.581755
0.555822
0.0371833
-0.404543
-0.117558
0.467759
0.619165
0.513874
0.599627
0.552973
0.0185879
-0.408751
-0.0999052
0.477629
0.615608
0.524592
0.611382
0.524041
-0.0163125
-0.375971
-0.0353191
0.467847
0.517826
0.175835
0.389486
0.524318
0.494386
0.485906
0.529194
0.528055
0.499866
0.505941
0.523351
0.518161
0.511958
0.522729
0.528314
0.517392
0.511712
0.522539
0.531706
0.523438
0.50983
0.511571
0.528863
0.536102
0.514417
0.491099
0.510982
0.552494
0.536556
0.474294
0.47819
0.551347
0.557718
0.512159
0.562443
0.553762
0.239302
-0.0499742
0.145595
0.500194
0.457079
0.261335
0.392918
0.537373
0.226401
-0.112412
0.108679
0.502059
0.438065
0.21452
0.3626
0.531573
0.228168
-0.0969317
0.135353
0.507934
0.415213
0.189905
0.342377
0.512893
0.247531
-0.0332627
0.168732
0.512072
0.512083
-0.255372
-0.0325509
0.348444
0.561888
0.42643
0.0904808
-0.00276358
0.316791
0.587788
0.371612
-0.00783649
0.0569549
0.471838
0.574317
0.198781
-0.0555398
0.214555
0.5774
0.456033
0.0435197
-0.00895002
0.378502
0.587896
0.279659
-0.0633823
0.0990973
0.497741
0.476937
0.0738014
-0.0481659
0.264718
0.416235
0.170105
0.0662385
0.332342
0.501231
0.44245
0.502347
0.526181
0.128078
-0.280537
-0.0629558
0.454687
0.570382
0.436977
0.535615
0.569286
0.106725
-0.333166
-0.0772385
0.472642
0.58424
0.450385
0.549917
0.558345
0.0746405
-0.351656
-0.0782558
0.479603
0.61368
0.469541
0.487271
0.512705
0.256292
-0.100378
-0.041627
0.240445
0.438146
0.239938
-0.215922
-0.326538
0.123896
0.485234
0.172083
-0.350643
-0.254775
0.31594
0.453658
-0.062756
-0.41278
-0.0451472
0.454412
0.296214
-0.266952
-0.349368
0.170625
0.46458
0.0626502
-0.398743
-0.196735
0.318868
0.293213
-0.218351
-0.361743
0.026961
0.173894
-0.187272
-0.315019
0.123766
0.481294
0.448502
0.460874
0.498922
0.135022
-0.285157
-0.088381
0.435067
0.546653
0.378192
0.464293
0.547394
0.150233
-0.270623
-0.04226
0.466426
0.536932
0.371578
0.477705
0.543695
0.132245
-0.260522
-0.0129981
0.474618
0.526666
0.334813
0.373677
0.468891
0.260819
0.361825
0.350123
0.437381
0.499302
0.383558
0.127103
0.0664267
0.355166
0.591583
0.379879
0.0221213
0.0851253
0.477067
0.575406
0.222235
-0.023413
0.22172
0.568942
0.47448
0.0881034
0.011934
0.360653
0.583973
0.324446
-0.00691029
0.117747
0.479539
0.458092
0.0881612
0.0129131
0.320971
0.390916
0.0719278
-0.00349718
0.324199
0.385861
0.0636423
0.0655961
0.432101
0.482308
0.2631
0.346941
0.53075
0.248144
-0.164726
-0.00681018
0.452368
0.50146
0.307564
0.411973
0.536319
0.188524
-0.19478
0.0229869
0.47406
0.495288
0.321138
0.436293
0.515814
0.142507
-0.211322
0.00894407
0.450075
0.532054
0.316081
0.487185
0.52128
0.429144
0.437951
0.532723
0.552746
0.506297
0.501144
0.532055
0.5354
0.514231
0.511604
0.531372
0.541083
0.524808
0.505064
0.517634
0.547852
0.541264
0.49981
0.499689
0.552364
0.553794
0.48503
0.479835
0.559784
0.537126
0.394677
0.400946
0.569128
0.558696
0.354861
0.380608
0.591887
0.384628
-0.154093
-0.166393
0.382527
0.651938
0.522869
0.537234
0.579747
0.171815
-0.311669
-0.139182
0.429302
0.622234
0.507539
0.57344
0.575176
0.099796
-0.349523
-0.104059
0.454013
0.600374
0.494382
0.575115
0.537767
0.057689
-0.299626
-0.00509686
0.464769
0.52711
-0.116946
0.276748
0.299879
0.0181913
0.0614768
0.435319
0.521497
0.169502
-0.0495799
0.214269
0.549799
0.441013
0.0689159
0.0181758
0.364437
0.561536
0.302078
0.0064157
0.138822
0.470916
0.472345
0.173068
0.0631959
0.260822
0.403088
0.307551
0.180815
0.146769
0.134341
0.166759
0.244295
0.193518
0.042372
0.134957
0.433568
0.394505
0.018854
-0.000335608
0.360667
0.39412
0.11407
0.157281
0.448591
0.401982
0.151577
0.257607
0.50389
0.327848
0.0198651
0.175417
0.498246
0.39032
0.134139
0.283654
0.514867
0.292984
-0.00465628
0.180044
0.48147
0.370284
0.193587
0.3662
0.459622
0.131689
-0.103837
0.296274
0.227143
-0.204898
-0.195853
0.270492
0.38472
-0.0799254
-0.382469
-0.0398089
0.412122
0.273683
-0.231116
-0.317425
0.137528
0.419045
0.0938638
-0.313445
-0.1725
0.263029
0.298271
-0.0826794
-0.257083
-0.0250339
0.171339
0.0664477
-0.0904143
-0.115286
-0.119821
-0.116931
-0.0492221
-0.0714788
-0.238289
-0.208357
0.155197
0.414358
0.349926
0.33305
0.397214
0.12433
-0.280705
-0.177092
0.323382
0.558055
0.497166
0.562421
0.553383
0.0725065
-0.397053
-0.167524
0.415883
0.597481
0.488823
0.570793
0.56521
0.0617271
-0.400191
-0.146474
0.421354
0.581956
0.493594
0.553471
0.450747
-0.0457192
0.356642
0.601224
0.480001
0.0859442
0.0751057
0.452022
0.562942
0.223124
-0.00787256
0.229138
0.552148
0.468319
0.116224
0.0344601
0.337061
0.556743
0.356129
0.0533885
0.117524
0.424999
0.475945
0.208377
0.0717842
0.236046
0.376124
0.29379
0.194727
0.212356
0.210451
0.180289
0.235353
0.265861
0.138434
0.0752433
0.269092
0.475256
0.495529
0.509833
0.507038
0.240863
-0.0492183
0.0923469
0.444678
0.447505
0.243143
0.346374
0.522109
0.254525
-0.097691
0.0862855
0.486889
0.444379
0.19492
0.322385
0.534612
0.271123
-0.0832313
0.103356
0.484608
0.42017
0.170442
0.275103
0.466918
0.302939
0.415418
0.572549
0.578984
0.382231
0.343451
0.514733
0.605913
0.518672
0.437863
0.476187
0.557394
0.576624
0.513752
0.455729
0.498557
0.598927
0.586404
0.457754
0.432551
0.573829
0.636637
0.488393
0.387823
0.511515
0.633634
0.539547
0.407999
0.460705
0.571601
0.563513
0.496058
0.485828
0.519212
0.553111
0.52316
0.371588
0.260874
0.392298
0.553672
0.442455
0.308798
0.488427
0.635117
0.269522
-0.205402
-0.0587658
0.452855
0.577404
0.42021
0.5079
0.605201
0.215422
-0.255508
-0.0822263
0.448968
0.582448
0.442364
0.535304
0.597616
0.188078
-0.249312
-0.0610724
0.458829
0.628045
-0.051405
0.137036
0.335903
0.302539
0.186695
0.143614
0.20214
0.315179
0.350352
0.227778
0.12183
0.2201
0.36942
0.326728
0.195138
0.222421
0.315615
0.267031
0.200984
0.309487
0.399176
0.235414
0.0827926
0.251817
0.479029
0.3433
0.0426836
0.0837012
0.402036
0.482534
0.202312
0.0174784
0.234853
0.555689
0.482152
0.0404781
-0.16881
0.144693
0.458291
0.304325
0.0928284
0.320599
0.57954
0.254329
-0.261541
-0.147174
0.386025
0.528927
0.329437
0.371869
0.519313
0.243626
-0.185109
-0.0777126
0.382182
0.50765
0.379918
0.458694
0.524013
0.18883
-0.167518
0.00107672
0.407035
0.44853
-0.176624
0.0172711
0.250115
0.256505
0.098701
-0.0542961
-0.0450243
0.120802
0.201179
0.0338709
-0.138377
-0.0343897
0.161339
0.126952
-0.0305498
-0.0150097
0.0728443
0.00443199
-0.0556548
0.108234
0.219923
-0.0191192
-0.248978
-0.0265999
0.317039
0.168107
-0.269911
-0.271518
0.182077
0.350659
-0.0572752
-0.400523
-0.125203
0.385139
0.383675
-0.102165
-0.288117
0.125166
0.437584
0.11081
-0.290964
-0.0616698
0.435488
0.43286
0.101796
0.135063
0.395989
0.250935
-0.13565
-0.0912615
0.321342
0.463382
0.292498
0.296451
0.415812
0.222051
-0.0716889
0.0176716
0.300454
0.33828
0.253034
0.34233
0.396537
0.130028
0.287495
0.347549
0.44905
0.491018
0.423958
0.269527
0.210276
0.344955
0.461059
0.339912
0.161928
0.221164
0.39337
0.384564
0.25375
0.256979
0.32977
0.27526
0.217507
0.34486
0.445922
0.261045
0.058594
0.215492
0.502097
0.413704
0.0675444
0.0356678
0.383661
0.544112
0.245246
-0.0455994
0.122822
0.495828
0.518678
0.200424
0.0949884
0.397105
0.588898
0.285738
-0.0748041
0.069861
0.483283
0.588215
0.446585
0.466315
0.515681
0.234194
-0.133427
-0.0631535
0.355386
0.57977
0.525175
0.531755
0.534217
0.227999
-0.122472
-0.0508388
0.290794
0.475808
0.487775
0.511451
0.452193
0.206389
0.543084
0.347367
0.333273
0.539854
0.646112
0.463019
0.293252
0.436469
0.662637
0.589768
0.34598
0.353911
0.585802
0.649032
0.467419
0.379903
0.51638
0.619701
0.539128
0.452219
0.502766
0.568676
0.53938
0.491485
0.512311
0.547248
0.534962
0.508234
0.514824
0.538788
0.543893
0.530198
0.508954
0.497057
0.503276
0.511334
0.508128
0.505124
0.496892
0.465938
0.453625
0.482984
0.464698
0.385659
0.412312
0.553444
0.547178
0.33893
0.241996
0.411294
0.553291
0.396358
0.202031
0.340465
0.569558
0.451116
0.195159
0.260724
0.51594
0.538828
0.341707
0.265856
0.381927
0.479002
0.298025
-0.125837
-0.140889
0.276778
0.487306
0.175969
-0.127102
0.0863035
0.466163
0.386181
-0.00715432
-0.0412269
0.341528
0.506421
0.1891
-0.0642331
0.17671
0.523661
0.419294
0.042852
0.0113825
0.380149
0.573207
0.293659
-0.00950809
0.145089
0.51838
0.523084
0.147173
-0.0168583
0.297216
0.604331
0.418083
0.0302039
0.0518392
0.429941
0.539708
0.199108
-0.0494514
0.191644
0.575691
0.539764
0.11562
-0.113895
0.139943
0.43884
0.328375
0.0872885
0.22461
0.583851
0.557657
0.0477298
-0.289785
0.00629696
0.464972
0.448147
0.182266
0.256879
0.549204
0.484053
0.0430388
-0.178669
0.110347
0.498181
0.195536
-0.235548
-0.199471
0.253373
0.421807
0.0298778
-0.308201
-0.0594856
0.359293
0.246449
-0.223239
-0.276583
0.177671
0.388719
-0.00621075
-0.364417
-0.0903405
0.383498
0.282792
-0.241931
-0.342681
0.156657
0.465837
0.0831556
-0.386537
-0.190996
0.36784
0.401554
-0.151154
-0.417904
0.0251293
0.478853
0.225523
-0.318573
-0.269393
0.299413
0.479167
-0.0138769
-0.401479
-0.081326
0.456924
0.407116
-0.128843
-0.317747
0.10713
0.441141
0.158644
-0.24009
-0.0703134
0.424306
0.466039
-0.0368654
-0.332353
0.014361
0.440098
0.292461
-0.112042
-0.0462811
0.390603
0.457653
0.00168603
-0.299585
-0.00519149
0.420526
0.429325
0.263256
0.300498
0.512299
0.566689
0.339125
0.157475
0.308378
0.549363
0.466445
0.165521
0.126571
0.420121
0.562744
0.295543
0.0343266
0.205623
0.540804
0.485395
0.108994
0.0123459
0.35911
0.592707
0.322613
-0.029878
0.0999267
0.511281
0.546861
0.145052
-0.0574152
0.260541
0.590275
0.4033
0.0052611
0.0436857
0.46494
0.607216
0.258282
-0.0297169
0.17754
0.539027
0.494542
0.141591
0.0685239
0.407084
0.613473
0.337566
-0.0179882
0.0685105
0.441099
0.541364
0.283583
0.143799
0.364495
0.565623
0.354243
-0.00588415
0.0361843
0.426378
0.582277
0.319861
0.0984624
0.269226
0.537458
0.405863
0.617862
0.582718
0.396983
0.361155
0.508505
0.598549
0.521419
0.434471
0.474561
0.560016
0.555971
0.490833
0.479894
0.528621
0.550151
0.519483
0.499995
0.519811
0.537034
0.525171
0.513685
0.523349
0.529636
0.519215
0.513226
0.525063
0.533368
0.523254
0.513569
0.52277
0.534568
0.524666
0.507623
0.508097
0.516137
0.515433
0.517015
0.525299
0.520248
0.499784
0.490185
0.50516
0.523686
0.518826
0.497254
0.484086
0.48042
0.472756
0.465709
0.48276
0.531837
0.560784
0.519566
0.458184
0.433849
0.432214
0.448074
0.482067
0.511792
0.531367
0.533932
0.519485
0.515713
0.0468221
0.516489
0.39441
-0.113048
-0.196667
0.275104
0.565277
0.244517
-0.143423
0.0308233
0.48658
0.502286
0.0748117
-0.0909186
0.274776
0.587614
0.357433
-0.0293159
0.0556198
0.477414
0.566518
0.191658
-0.0391093
0.244638
0.593604
0.456559
0.0546649
0.026762
0.416771
0.606974
0.298459
-0.0157065
0.16429
0.553573
0.530316
0.118726
-0.0400326
0.30497
0.612097
0.400504
0.0144907
0.0705923
0.469668
0.558091
0.177798
-0.0741224
0.208101
0.597236
0.506379
0.0984404
0.017129
0.370546
0.557307
0.247293
-0.0555294
0.157822
0.569272
0.559893
0.168302
0.00871839
0.315592
0.576178
0.367439
0.0474342
0.00838158
0.477082
0.332843
-0.222381
-0.315633
0.202626
0.503739
0.0925475
-0.387258
-0.173328
0.391047
0.396219
-0.172081
-0.402831
0.0751644
0.494499
0.179253
-0.363985
-0.261786
0.323761
0.454892
-0.0780221
-0.420763
-0.0239391
0.481407
0.28989
-0.293522
-0.340515
0.223178
0.500228
0.0500303
-0.409799
-0.14596
0.427972
0.406675
-0.175731
-0.399815
0.0859809
0.508788
0.199643
-0.33933
-0.23968
0.340822
0.471585
-0.0628875
-0.420526
-0.0352186
0.494616
0.349068
-0.227531
-0.317423
0.208972
0.485328
0.0550678
-0.380978
-0.104152
0.464252
0.43729
-0.141648
-0.366254
0.103988
0.499961
0.180266
-0.336525
0.381711
0.602058
0.53483
0.25536
0.201084
0.467514
0.619963
0.374025
0.0873421
0.214535
0.558249
0.552774
0.178943
0.0216897
0.334819
0.613441
0.394014
0.0137147
0.0789035
0.486875
0.578781
0.197144
-0.0537262
0.226706
0.590703
0.453806
0.0310375
-0.00474749
0.403853
0.605145
0.277146
-0.0591628
0.1299
0.546153
0.535932
0.123461
-0.0331999
0.313653
0.608608
0.377763
-0.0115288
0.0642289
0.487776
0.591675
0.22025
-0.035497
0.222604
0.577216
0.454994
0.0411896
-0.0016821
0.404344
0.618016
0.307014
-0.0274775
0.140819
0.532597
0.508235
0.0879933
-0.061371
0.310088
0.616106
0.361326
-0.062149
0.501343
0.34955
0.410011
0.578068
0.595148
0.462523
0.40547
0.497709
0.579783
0.541191
0.470375
0.479125
0.535813
0.549044
0.51585
0.49915
0.515901
0.530039
0.524424
0.518586
0.521728
0.521334
0.51591
0.518748
0.528152
0.52635
0.513945
0.512107
0.52591
0.533011
0.52152
0.509959
0.514207
0.523771
0.523602
0.517319
0.516851
0.523403
0.525684
0.516844
0.507651
0.509593
0.515776
0.518308
0.521945
0.524843
0.520307
0.512904
0.504498
0.496009
0.501094
0.518871
0.527795
0.521501
0.509843
0.504564
0.511804
0.512354
0.492144
0.485948
0.520874
0.553126
0.525519
0.466725
0.234816
-0.222983
-0.0753177
0.441126
0.507575
0.0399815
-0.192698
0.187157
0.579095
0.379649
-0.0669412
-0.038325
0.418996
0.584581
0.215691
-0.0821175
0.169012
0.569242
0.489945
0.0713588
-0.0125435
0.372012
0.615117
0.336748
-0.0141801
0.121558
0.52795
0.560635
0.16965
-0.0235247
0.288405
0.612056
0.43316
0.0323802
0.0433408
0.447184
0.600562
0.259354
-0.0320769
0.191643
0.576164
0.509014
0.0912155
-0.018381
0.35337
0.614632
0.352532
-0.00579045
0.11698
0.524642
0.566526
0.171848
-0.0370848
0.270298
0.604644
0.440673
0.0593443
0.0837117
0.475121
0.607742
0.274627
0.0129015
0.23858
0.586785
0.189683
-0.321742
-0.176824
0.383782
0.446258
-0.104421
-0.391011
0.0457065
0.504614
0.243607
-0.327495
-0.299125
0.282966
0.487678
-0.0143903
-0.422194
-0.0845759
0.460152
0.342671
-0.249354
-0.371572
0.171116
0.514981
0.113387
-0.393497
-0.199125
0.387557
0.434179
-0.133436
-0.414537
0.03709
0.50652
0.250698
-0.323297
-0.303814
0.27763
0.495627
0.00293058
-0.416406
-0.0938403
0.461437
0.370004
-0.223591
-0.37913
0.147137
0.513934
0.137316
-0.375393
-0.199135
0.388457
0.450114
-0.117619
-0.416624
0.0271744
0.507908
0.264071
-0.304441
-0.279639
0.298943
0.497922
-0.00932339
-0.413805
-0.0676364
0.474361
0.461358
0.205392
0.274191
0.563482
0.592857
0.281626
0.109629
0.354337
0.62049
0.456092
0.096147
0.108512
0.476759
0.602861
0.262537
-0.0159965
0.211094
0.581666
0.494624
0.0762091
-0.0117662
0.371487
0.61377
0.323494
-0.0419392
0.0977135
0.520627
0.553722
0.143071
-0.0603154
0.265813
0.604331
0.419492
0.00669273
0.022859
0.443012
0.599824
0.244347
-0.0588923
0.17098
0.569268
0.505306
0.0823965
-0.0262377
0.352436
0.614026
0.339238
-0.0359455
0.0854245
0.509197
0.558829
0.154395
-0.0588479
0.26106
0.604104
0.414983
-0.0163675
-0.00522098
0.430036
0.584232
0.196277
-0.119863
0.144007
0.563712
0.443216
0.599394
0.556026
0.417306
0.415607
0.539368
0.589136
0.508271
0.443697
0.488957
0.557688
0.549592
0.498885
0.489937
0.522322
0.538337
0.523774
0.511905
0.516804
0.521829
0.520056
0.521524
0.525632
0.52121
0.512599
0.515433
0.52731
0.528933
0.517064
0.510852
0.520086
0.529336
0.523398
0.511704
0.512719
0.524611
0.52883
0.519755
0.511883
0.515732
0.523193
0.52178
0.513851
0.51332
0.523535
0.529711
0.520337
0.506057
0.506594
0.521259
0.527921
0.517965
0.509475
0.517488
0.528922
0.515847
0.483949
0.483907
0.529594
0.553497
0.510347
0.464668
0.496152
0.561312
0.0757314
0.535916
0.383108
-0.112733
-0.140761
0.346361
0.578391
0.208419
-0.148795
0.0832343
0.534241
0.498434
0.0562644
-0.073796
0.315935
0.60935
0.354406
-0.0290222
0.072449
0.497379
0.576361
0.193216
-0.0385309
0.249017
0.60056
0.462125
0.0564135
0.0274843
0.421335
0.614324
0.300864
-0.022276
0.156924
0.55386
0.538172
0.133945
-0.0175541
0.32482
0.618147
0.396204
0.0108537
0.074175
0.485249
0.590303
0.223043
-0.0310867
0.231842
0.592009
0.477857
0.0762889
0.031484
0.416858
0.616893
0.311792
-0.00704617
0.171814
0.560277
0.5455
0.170811
0.0496359
0.37801
0.630054
0.411607
0.0899323
0.0196863
0.50426
0.310766
-0.2694
-0.314797
0.243477
0.50625
0.0460113
-0.403372
-0.123877
0.434947
0.374811
-0.212028
-0.389753
0.125153
0.512464