# vtk DataFile Version 3.0
PFC-RG simulation results
ASCII
DATASET STRUCTURED_POINTS
DIMENSIONS 64 64 1
ORIGIN 0 0 0
SPACING 1 1 1
POINT_DATA 4096
SCALARS psi double
LOOKUP_TABLE default
0.490455
0.5346
0.507503
0.440642
0.469126
0.537906
0.533125
0.491516
0.501263
0.537313
0.532405
0.501102
0.516128
0.562641
0.549551
0.481885
0.485285
0.583076
0.599331
0.480472
0.427384
0.552285
0.636181
0.524695
0.424839
0.513951
0.62486
0.554328
0.429483
0.461581
0.582539
0.596972
0.514192
0.479821
0.511987
0.525733
0.495083
0.461522
0.456428
0.471808
0.510582
0.551857
0.432432
0.116925
-0.00994214
0.278707
0.575388
0.550242
0.495848
0.610116
0.485376
-0.0488023
-0.34306
0.0469204
0.557579
0.61156
0.507804
0.588373
0.500828
0.0234071
-0.299222
-0.0262603
0.454258
0.618234
-0.0062099
0.0642424
0.324997
0.531917
0.441702
0.131122
0.0249539
0.308172
0.567307
0.391196
0.0474535
0.0749575
0.433583
0.559221
0.253603
-0.00997026
0.170419
0.504866
0.467929
0.138524
0.0405463
0.299158
0.476712
0.341162
0.185715
0.219772
0.284976
0.27638
0.328456
0.416327
0.318319
0.117088
0.166054
0.434725
0.470085
0.194416
0.0946533
0.383706
0.59379
0.346139
0.0261033
0.147959
0.441178
0.376068
0.176635
0.289196
0.455489
0.323299
0.210903
0.405437
0.489403
0.156694
-0.0770862
0.205277
0.510549
0.368696
0.183013
0.358879
0.510553
0.26813
0.00557605
0.137236
0.427247
0.464222
-0.328233
-0.265814
0.117619
0.444446
0.291555
-0.200324
-0.348902
0.0940915
0.466798
0.17611
-0.331708
-0.258494
0.27809
0.431089
-0.0316849
-0.374973
-0.0732904
0.380554
0.276003
-0.190463
-0.280345
0.103683
0.333021
0.112861
-0.135357
-0.0966424
0.0358439
0.0845741
0.147878
0.178148
-0.0283531
-0.277553
-0.129087
0.28876
0.337525
-0.0596917
-0.204588
0.205355
0.487214
0.100288
-0.37301
-0.167316
0.394804
0.55964
0.431963
0.460027
0.397663
-0.0358943
-0.313896
0.027479
0.501879
0.542707
0.437709
0.54975
0.4929
-0.00813378
-0.345542
-0.0126866
0.504762
0.59577
0.44082
0.432325
0.465108
0.282074
0.0127463
0.0446391
0.29422
0.517166
0.430415
0.103945
0.00398219
0.321554
0.586913
0.366067
-0.0058068
0.062037
0.463648
0.564569
0.215697
-0.0188106
0.225911
0.551901
0.447225
0.101263
0.0679711
0.371927
0.518197
0.317603
0.133382
0.197383
0.317928
0.337092
0.349564
0.34436
0.177208
0.00425406
0.156185
0.501942
0.507941
0.106616
-0.0847111
0.254514
0.535789
0.250891
-0.106123
0.0873893
0.484906
0.48021
0.322801
0.451863
0.499896
0.0941805
-0.219987
0.0798576
0.515051
0.506791
0.369525
0.504239
0.515333
0.0770266
-0.237817
0.0668321
0.496537
0.477399
0.293007
0.370869
0.509864
0.397749
0.426671
0.516478
0.511545
0.444068
0.462592
0.526318
0.536455
0.519905
0.523593
0.523814
0.513012
0.517814
0.531638
0.526083
0.512663
0.522249
0.539503
0.530414
0.505385
0.513897
0.551741
0.552215
0.499813
0.480694
0.547088
0.586117
0.509864
0.435971
0.507423
0.602851
0.528376
0.393807
0.445376
0.621456
0.586231
0.271737
0.0950152
0.340113
0.615694
0.534305
0.403202
0.533254
0.539453
0.117078
-0.179308
0.143379
0.567969
0.510278
0.334657
0.475699
0.518262
0.102318
-0.205187
0.10384
0.522589
0.483659
0.338383
0.484086
0.502304
0.078664
-0.21149
0.0811093
0.477772
0.506888
0.267738
0.545928
0.369257
-0.0130916
0.0512001
0.473251
0.583643
0.225063
-0.0303623
0.209583
0.570782
0.495889
0.100276
-0.0044376
0.343225
0.598187
0.357727
-0.00287829
0.0769966
0.468018
0.557367
0.209103
-0.0400645
0.181134
0.526436
0.476001
0.12259
-0.0138129
0.2399
0.495986
0.424634
0.194331
0.127038
0.249858
0.314548
0.190778
0.117336
0.312054
0.498031
0.422299
0.384268
0.560794
0.497482
-0.0251298
-0.351255
0.0182932
0.528496
0.566165
0.45564
0.580062
0.518859
-0.0160495
-0.369448
-0.010657
0.509132
0.566442
0.47099
0.588284
0.507108
-0.000221358
-0.266116
0.0897907
0.403256
0.239255
-0.0538826
0.397571
0.20627
-0.309049
-0.247178
0.310101
0.455733
-0.0517438
-0.416763
-0.0684778
0.455601
0.343215
-0.231159
-0.372061
0.140152
0.500555
0.142073
-0.368304
-0.229965
0.331274
0.431099
-0.0755641
-0.390161
-0.0406242
0.413746
0.286626
-0.194433
-0.312313
0.0616043
0.367372
0.219665
-0.128109
-0.249682
-0.054402
0.194977
0.255495
0.253897
0.37157
0.356529
0.042382
-0.106911
0.210809
0.490586
0.31622
0.131539
0.342158
0.487402
0.176628
-0.0611877
0.226163
0.525466
0.350112
0.150113
0.357604
0.504574
0.192538
-0.0489331
0.221833
0.495428
0.341735
0.230714
0.450771
0.410169
-0.0937254
0.114875
0.510119
0.388043
0.00449031
0.0568509
0.471406
0.57443
0.202653
-0.0588191
0.195702
0.572495
0.490829
0.0809441
-0.0148311
0.355258
0.611163
0.352262
-0.00716675
0.101256
0.500634
0.560922
0.201944
0.00109353
0.260988
0.560654
0.448585
0.129283
0.0841779
0.34744
0.529146
0.388779
0.106418
0.00385591
0.2008
0.469731
0.514017
0.441115
0.4817
0.389755
-0.0463466
-0.312932
0.0331861
0.52202
0.595505
0.513362
0.609108
0.498464
-0.0598837
-0.404352
-0.0221898
0.526818
0.61129
0.519702
0.61787
0.512791
-0.0425292
-0.389288
-0.0290827
0.486783
0.571099
0.519843
0.631503
0.50639
0.0343091
0.463548
0.568401
0.540515
0.46054
0.482271
0.540877
0.536864
0.505925
0.507321
0.523453
0.523201
0.515227
0.515786
0.522142
0.524305
0.519989
0.516316
0.522663
0.530697
0.522767
0.507525
0.516982
0.545504
0.540104
0.49851
0.494003
0.548962
0.567775
0.512492
0.490023
0.536078
0.527931
0.454944
0.488453
0.566451
0.435303
0.247166
0.339656
0.481388
0.291277
0.0893991
0.284183
0.506945
0.338301
0.159514
0.363435
0.51653
0.221916
-0.0249554
0.233603
0.518598
0.345692
0.140406
0.341653
0.514208
0.242457
-0.00322572
0.230754
0.509653
0.365626
0.151883
0.288034
0.49498
0.453318
0.330028
0.163307
0.277143
0.509156
0.471596
0.140365
0.0108161
0.324937
0.60436
0.386947
0.00154298
0.0614232
0.475582
0.586815
0.217356
-0.0501863
0.204103
0.57801
0.481098
0.0629293
-0.0221681
0.358968
0.604822
0.321303
-0.0486677
0.080458
0.501867
0.537163
0.139618
-0.0400203
0.263667
0.543416
0.447268
0.270192
0.191779
0.0115715
-0.143683
0.0869521
0.486149
0.578666
0.510124
0.580105
0.473593
-0.0384062
-0.362639
-0.00702977
0.514241
0.586008
0.484196
0.588144
0.516529
-0.0153094
-0.381795
-0.039378
0.506191
0.60421
0.487898
0.564292
0.543461
0.110673
-0.301307
-0.161295
0.330355
0.616374
-0.0734825
-0.25536
0.0252986
0.426909
0.347965
-0.173792
-0.369219
0.0940533
0.502732
0.195393
-0.352017
-0.267126
0.319774
0.477572
-0.0443799
-0.419877
-0.0570964
0.469323
0.328842
-0.255324
-0.362031
0.174176
0.50268
0.102135
-0.389314
-0.190519
0.371863
0.389606
-0.150788
-0.367068
0.056628
0.423354
0.269193
0.0062575
-0.0354688
-0.0567234
-0.0627013
0.170962
0.430504
0.38584
0.299912
0.465454
0.493312
0.0870059
-0.201571
0.103838
0.511379
0.466366
0.3128
0.466467
0.520944
0.112142
-0.209878
0.0808318
0.512103
0.482938
0.287752
0.398883
0.529833
0.256069
-0.127336
-0.0893386
0.296785
0.510499
-0.0721656
-0.0694603
0.243164
0.559422
0.497913
0.120322
-0.0250883
0.304271
0.603295
0.391957
0.00322257
0.0608221
0.476255
0.58951
0.222785
-0.0400528
0.21653
0.585966
0.48673
0.0798761
0.0106583
0.387937
0.613627
0.330835
-0.00537382
0.143593
0.531774
0.528446
0.15383
0.0305895
0.327825
0.523185
0.356648
0.207598
0.286564
0.371345
0.418712
0.511009
0.398876
-0.0321432
-0.252806
0.108384
0.53673
0.513278
0.381058
0.518994
0.517557
0.0560456
-0.274281
0.0485823
0.518151
0.525505
0.379404
0.507336
0.532262
0.0878627
-0.288726
-0.0264303
0.478019
0.577165
0.381302
0.350228
0.485044
0.469539
0.290668
0.419427
0.505606
0.492497
0.494179
0.520091
0.51994
0.510758
0.517265
0.524436
0.522106
0.519242
0.518804
0.518054
0.52017
0.524621
0.522736
0.515767
0.516044
0.524808
0.528357
0.521733
0.515836
0.51778
0.52549
0.531143
0.52181
0.499023
0.504225
0.552312
0.552021
0.43982
0.36607
0.483239
0.605079
0.534803
0.479093
0.568845
0.441306
-0.0481879
-0.307385
0.0675608
0.537885
0.553164
0.439928
0.566317
0.522104
0.0102016
-0.343469
-0.00197993
0.513364
0.565953
0.44138
0.553276
0.531686
0.0499979
-0.317663
-0.0278406
0.461175
0.531431
0.391569
0.459236
0.577819
0.477825
0.449273
0.586749
0.3539
-0.0321248
0.0242836
0.455209
0.599966
0.248493
-0.0418388
0.181808
0.567611
0.507716
0.0924355
-0.0245436
0.343523
0.614128
0.355227
-0.0249101
0.0762852
0.497093
0.568285
0.177836
-0.0549529
0.233323
0.581705
0.443051
0.0388653
-0.00674799
0.365432
0.577921
0.302837
-0.053336
0.0406613
0.437034
0.502729
0.122574
-0.0826223
0.21846
0.51158
0.376097
0.221709
0.416638
0.513289
0.152481
-0.122531
0.165545
0.518668
0.405042
0.217854
0.398541
0.518603
0.172279
-0.120257
0.146811
0.505953
0.421287
0.25417
0.414137
0.48752
0.137976
-0.105234
0.160092
0.447233
0.350836
0.288222
0.507981
0.193212
-0.33942
-0.278399
0.296245
0.488441
-0.00304465
-0.410452
-0.0960861
0.449272
0.367812
-0.215488
-0.379691
0.137508
0.516586
0.153774
-0.375657
-0.230404
0.358144
0.454928
-0.0915836
-0.413865
-0.00653412
0.482693
0.289203
-0.272711
-0.330409
0.184237
0.465384
0.101743
-0.311392
-0.11903
0.378841
0.382849
-0.160293
-0.441399
-0.018526
0.527472
0.599931
0.49537
0.592221
0.50757
-0.0393404
-0.407609
-0.0474519
0.512968
0.613097
0.514191
0.609493
0.524556
-0.0259816
-0.402846
-0.0557436
0.493481
0.601149
0.525709
0.618982
0.501329
-0.0217458
-0.283681
0.0697706
0.367639
0.182629
0.13998
0.504439
0.405346
0.0518359
0.0805552
0.46452
0.584091
0.239419
-0.0357489
0.188349
0.566517
0.508431
0.103089
-0.0101014
0.351231
0.615739
0.362444
-0.00578131
0.097912
0.50902
0.57504
0.194381
-0.0271677
0.258029
0.597989
0.466053
0.0809378
0.040659
0.393235
0.594601
0.35864
0.071673
0.177051
0.50459
0.527712
0.164664
-0.0440793
0.229473
0.502264
0.309788
0.0762559
0.282542
0.509811
0.282927
0.0390182
0.262956
0.515212
0.307328
0.0727833
0.288975
0.516523
0.285512
0.0466066
0.271689
0.509886
0.294422
0.0695596
0.279649
0.484185
0.291716
0.161533
0.397683
0.474145
0.15384
0.166728
0.438643
0.551721
0.535277
0.53291
0.533865
0.507145
0.498965
0.522772
0.530831
0.514151
0.508789
0.521474
0.527072
0.518742
0.513185
0.51884
0.526165
0.524056
0.514707
0.511353
0.521016
0.530575
0.522176
0.505713
0.510504
0.533636
0.53511
0.514119
0.521589
0.549926
0.518397
0.436887
0.438332
0.523914
0.529101
0.49698
0.571594
0.480044
-0.0131246
-0.367164
-0.0426951
0.501191
0.610306
0.510763
0.600173
0.523297
-0.018508
-0.400667
-0.0554218
0.505158
0.61023
0.510572
0.605761
0.52877
-0.0117854
-0.392552
-0.065023
0.476355
0.602365
0.529939
0.598415
0.554646
0.269623
0.253942
0.158855
0.264214
0.500648
0.492424
0.153291
-0.0167894
0.289984
0.602079
0.400825
-0.00242339
0.0442955
0.468755
0.589428
0.213992
-0.0569396
0.207328
0.584988
0.475203
0.0502631
-0.0191137
0.375962
0.610625
0.311506
-0.0536899
0.0877591
0.510472
0.547442
0.151886
-0.0389749
0.253623
0.518036
0.339126
0.0657159
0.117779
0.305989
0.386524
0.469213
0.456773
0.133813
-0.120184
0.134228
0.494718
0.430291
0.262844
0.4243
0.521604
0.156632
-0.150887
0.124835
0.512693
0.435968
0.248184
0.410221
0.524473
0.177131
-0.132989
0.120348
0.510927
0.462725
0.229386
0.274836
0.453077
0.446028
0.284075
-0.0164241
0.0221982
0.328633
0.335662
-0.116256
-0.345975
0.0733802
0.495586
0.21263
-0.34277
-0.273327
0.316279
0.480106
-0.0452458
-0.420777
-0.0490286
0.477738
0.323761
-0.265394
-0.357043
0.19221
0.513581
0.0999226
-0.396064
-0.194511
0.382715
0.423953
-0.12858
-0.403508
0.00129698
0.429118
0.288222
-0.0779083
-0.168857
-0.113909
-0.08842
0.116613
0.439119
0.510999
0.447066
0.545758
0.500771
0.0288636
-0.310865
0.0105093
0.508372
0.55249
0.422767
0.542286
0.532481
0.0458029
-0.326571
-0.0111619
0.506473
0.567495
0.426408
0.525477
0.549081
0.128867
-0.292175
-0.15152
0.332315
0.588182
0.203618
0.168063
0.27408
0.472633
0.480048
0.185761
0.0236128
0.303768
0.597652
0.403806
0.0153126
0.0637832
0.47748
0.590726
0.221481
-0.0393194
0.222603
0.589431
0.481889
0.0756065
0.0153523
0.394775
0.614525
0.330901
-0.00496387
0.137748
0.531848
0.551894
0.166658
-0.0188742
0.264562
0.562509
0.484802
0.248636
0.118317
-0.00261903
-0.0911964
0.108143
0.449634
0.522852
0.453179
0.551029
0.509801
0.0406381
-0.300392
0.0158957
0.506179
0.541686
0.406156
0.529068
0.532916
0.0616548
-0.30339
0.00632505
0.50487
0.542408
0.390702
0.496949
0.534404
0.138059
-0.235296
-0.0584488
0.376884
0.534935
0.0261483
0.419335
0.581241
0.510697
0.491525
0.537171
0.535815
0.508599
0.513819
0.530501
0.527473
0.518187
0.517464
0.519715
0.522035
0.524545
0.520699
0.512537
0.514998
0.528079
0.529512
0.51348
0.50559
0.520004
0.533602
0.524704
0.505609
0.497145
0.508729
0.532862
0.525074
0.455438
0.413161
0.491724
0.554848
0.443838
0.340566
0.448292
0.482142
0.152914
-0.118454
0.135416
0.506275
0.447646
0.277546
0.434022
0.526164
0.150087
-0.172712
0.101022
0.508749
0.457236
0.281101
0.435718
0.522947
0.14167
-0.179259
0.0903164
0.494052
0.466664
0.307774
0.417614
0.477273
0.21588
-0.0113279
0.476024
0.457627
0.0562474
0.031404
0.43174
0.582032
0.238894
-0.0394192
0.193372
0.571369
0.498097
0.0847608
-0.0192142
0.352884
0.613469
0.345154
-0.0310815
0.0816658
0.504676
0.562449
0.159649
-0.0657807
0.239877
0.586501
0.424758
0.00903275
-0.0224353
0.366278
0.583071
0.299731
-0.0996522
-0.0799505
0.324631
0.587435
0.48663
0.404214
0.557192
0.510497
-0.0055517
-0.387025
-0.0628381
0.4971
0.611801
0.504198
0.595568
0.538066
0.00606747
-0.392557
-0.0656732
0.495728
0.606041
0.503796
0.59974
0.529386
-0.00558643
-0.373256
-0.0326774
0.484056
0.559373
0.485957
0.598201
0.482724
-0.0394304
0.276847
0.535567
0.254007
-0.31429
-0.295314
0.276313
0.473508
-0.0187417
-0.413015
-0.0826355
0.454012
0.352283
-0.229385
-0.374179
0.148927
0.51354
0.139902
-0.380943
-0.2224
0.362703
0.442732
-0.108437
-0.414403
0.00396267
0.476478
0.260467
-0.295174
-0.332912
0.18142
0.455827
0.0923329
-0.364228
-0.263499
0.238131
0.427703
0.112237
-0.080373
0.227274
0.510863
0.301897
0.0488835
0.258707
0.512738
0.291822
0.0185146
0.22856
0.511963
0.335365
0.0933223
0.291412
0.516834
0.27726
0.0158383
0.239524
0.508606
0.32531
0.118264
0.331013
0.497959
0.216904
0.0121405
0.280748
0.458266
0.145441
0.505728
0.628189
0.384149
-0.020273
0.0330854
0.465904
0.591548
0.222888
-0.0526856
0.1916
0.571107
0.497374
0.0911248
-0.00788458
0.357476
0.611963
0.353688
-0.00691945
0.102752
0.507447
0.56454
0.188892
-0.0187252
0.264523
0.583515
0.445727
0.0862681
0.0592851
0.380758
0.557357
0.350555
0.0955533
0.191003
0.506748
0.48292
-0.031786
-0.373337
-0.0355091
0.497139
0.595529
0.489256
0.587921
0.544544
0.0127387
-0.409655
-0.097035
0.483414
0.617266
0.513653
0.604291
0.542219
-0.00311421
-0.410376
-0.0783815
0.491503
0.611806
0.523814
0.614915
0.509755
-0.0403139
-0.374294
-0.00848341
0.482826
0.510425
0.207873
0.411823
0.524427
0.487326
0.483853
0.529788
0.528578
0.500253
0.505001
0.522232
0.519439
0.513877
0.521388
0.525395
0.517767
0.514504
0.522699
0.528808
0.522179
0.51169
0.512851
0.527438
0.534496
0.514998
0.492475
0.511481
0.552808
0.537455
0.474826
0.478308
0.552676
0.55949
0.510089
0.555306
0.549306
0.249066
-0.0219466
0.176051
0.50644
0.437606
0.244776
0.391656
0.532662
0.215502
-0.105086
0.133324
0.510316
0.423212
0.207262
0.371027
0.529002
0.209576
-0.104437
0.145196
0.512778
0.414352
0.206489
0.368449
0.510176
0.21279
-0.0619403
0.162516
0.512222
0.51555
-0.239437
-0.0190443
0.350293
0.567611
0.439887
0.0983219
-0.00312058
0.317854
0.593385
0.377711
-0.00316256
0.061218
0.475856
0.578493
0.203852
-0.0508979
0.21781
0.581413
0.462509
0.048795
-0.00848588
0.37813
0.592959
0.287823
-0.0605534
0.0964483
0.498862
0.484936
0.0787147
-0.05422
0.254072
0.409617
0.162847
0.0500657
0.313978
0.49676
0.457515
0.51828
0.515219
0.0964931
-0.292988
-0.0443371
0.471848
0.570489
0.441742
0.547153
0.55891
0.0770634
-0.341207
-0.0547365
0.488906
0.578674
0.446088
0.552956
0.547973
0.0560842
-0.345363
-0.0473539
0.495857
0.601662
0.453875
0.477042
0.497011
0.245128
-0.12231
-0.0659111
0.220676
0.442278
0.259597
-0.209059
-0.335701
0.119197
0.491682
0.178083
-0.351682
-0.256645
0.319193
0.459369
-0.0601864
-0.414266
-0.0455736
0.459156
0.303114
-0.265088
-0.353167
0.170005
0.472724
0.0718684
-0.399906
-0.204788
0.319675
0.306968
-0.209101
-0.372118
0.00867434
0.170543
-0.176635
-0.314554
0.102098
0.452801
0.434101
0.456338
0.481138
0.110718
-0.279175
-0.0524104
0.454469
0.533709
0.368116
0.469712
0.538938
0.126121
-0.271862
-0.0147099
0.483157
0.530911
0.373503
0.492688
0.538518
0.101637
-0.27932
-0.00377545
0.488303
0.535761
0.355516
0.397089
0.46625
0.238177
0.339656
0.320275
0.410798
0.497242
0.397996
0.12861
0.0514101
0.345817
0.594256
0.380008
0.0126961
0.0758339
0.47615
0.577416
0.218832
-0.0314185
0.216713
0.569611
0.475759
0.0852259
0.00678807
0.35927
0.588198
0.32915
-0.00938318
0.108471
0.4757
0.46936
0.103639
0.0118612
0.307407
0.393523
0.100154
0.0195073
0.313135
0.356607
0.0546342
0.0809647
0.438914
0.4756
0.274517
0.372569
0.52566
0.210618
-0.18153
0.0136641
0.467911
0.494984
0.310174
0.428666
0.531705
0.162544
-0.197055
0.0525397
0.489861
0.477209
0.300901
0.432241
0.509151
0.133556
-0.192533
0.0512024
0.471662
0.519303
0.333473
0.50838
0.526297
0.429728
0.447605
0.542065
0.553832
0.506365
0.503697
0.532394
0.532637
0.513239
0.513036
0.530666
0.538281
0.524161
0.506682
0.516608
0.544679
0.542456
0.504505
0.498295
0.544236
0.55353
0.49639
0.483536
0.546637
0.530374
0.411956
0.41844
0.562768
0.548829
0.37007
0.402233
0.585465
0.367139
-0.134803
-0.113286
0.413825
0.646097
0.520765
0.547174
0.564166
0.134145
-0.316956
-0.102327
0.455188
0.615545
0.503417
0.581447
0.560329
0.0623703
-0.360794
-0.0774363
0.474746
0.59767
0.498924
0.591179
0.525543
0.0129343
-0.324824
0.0107899
0.480291
0.516758
-0.0788251
0.341527
0.326174
0.0065758
0.0581683
0.456632
0.546752
0.180036
-0.0514878
0.216234
0.564549
0.458611
0.0733005
0.011238
0.365794
0.578535
0.316731
0.00197009
0.129579
0.482305
0.496097
0.173635
0.0372666
0.25409
0.437499
0.335689
0.159631
0.112926
0.143368
0.197079
0.239041
0.159531
0.0283661
0.139023
0.417252
0.370172
0.0364315
0.0492442
0.374954
0.362249
0.0962173
0.174551
0.458236
0.39047
0.158485
0.288088
0.509942
0.300173
0.00720294
0.192849
0.50389
0.370689
0.127067
0.298408
0.516155
0.280778
0.0128909
0.224121
0.490613
0.327172
0.154999
0.361998
0.450127
0.0992978
-0.0801483
0.347799
0.226939
-0.249868
-0.221635
0.286194
0.409283
-0.07889
-0.400292
-0.0458868
0.431672
0.295029
-0.235774
-0.337852
0.13671
0.444229
0.111292
-0.32842
-0.194554
0.27556
0.33585
-0.0744212
-0.292029
-0.0424664
0.2122
0.110297
-0.109082
-0.161937
-0.121145
-0.0858531
-0.053248
-0.111761
-0.26013
-0.207506
0.135776
0.377161
0.340803
0.346336
0.376364
0.0702588
-0.300701
-0.142935
0.356388
0.557504
0.494614
0.572056
0.540291
0.0349565
-0.407261
-0.135463
0.44338
0.598285
0.493056
0.583167
0.550863
0.0280482
-0.399971
-0.107518
0.445373
0.577084
0.503248
0.580621
0.44117
-0.093128
0.374667
0.616001
0.453395
0.0506702
0.0662279
0.45937
0.564035
0.212912
-0.0224448
0.221398
0.556613
0.471879
0.105209
0.0163242
0.332295
0.568257
0.365049
0.0416799
0.0939019
0.422745
0.505083
0.231178
0.0553712
0.213537
0.39525
0.329689
0.190953
0.180821
0.206307
0.202376
0.235935
0.2424
0.131136
0.0858875
0.261706
0.447783
0.482861
0.511186
0.483898
0.198579
-0.0577264
0.126159
0.464702
0.424812
0.219593
0.350438
0.521215
0.234514
-0.0981313
0.116159
0.503001
0.430971
0.191082
0.338038
0.529648
0.239607
-0.099984
0.111092
0.489636
0.428788
0.211606
0.323441
0.465716
0.265934
0.441123
0.546482
0.554648
0.428792
0.413099
0.524622
0.574784
0.521163
0.478977
0.497359
0.536701
0.553533
0.526923
0.485194
0.498742
0.571925
0.583957
0.491595
0.448335
0.551007
0.626549
0.520894
0.417082
0.504497
0.623882
0.553744
0.422893
0.458151
0.568985
0.570751
0.49786
0.479612
0.521445
0.563203
0.523651
0.364718
0.268103
0.409566
0.553098
0.426554
0.310465
0.507674
0.629092
0.227525
-0.229913
-0.0359174
0.478831
0.576053
0.422636
0.525779
0.596811
0.171004
-0.281548
-0.0643457
0.470067
0.581775
0.438203
0.532206
0.583987
0.175821
-0.247462
-0.0651691
0.437838
0.618448
-0.0534719
0.0398831
0.295245
0.415371
0.311687
0.124851
0.114707
0.328339
0.459399
0.280619
0.0626569
0.163072
0.421326
0.421783
0.193585
0.131731
0.291405
0.364485
0.279948
0.267569
0.329016
0.254643
0.14991
0.268661
0.452246
0.337228
0.0650059
0.0976282
0.397389
0.47675
0.20189
0.0170743
0.233636
0.554226
0.478115
0.0389708
-0.156722
0.163731
0.463671
0.296396
0.0934348
0.330125
0.570023
0.225658
-0.26223
-0.105563
0.415138
0.51833
0.324435
0.393252
0.519537
0.203333
-0.208786
-0.0489496
0.422758
0.525054
0.388454
0.472329
0.536724
0.188554
-0.198682
-0.0558935
0.384044
0.493931
-0.230353
-0.136994
0.178587
0.352984
0.186025
-0.13957
-0.190975
0.115646
0.315179
0.0720179
-0.241052
-0.125073
0.217766
0.23615
-0.0563476
-0.160429
0.0193024
0.120639
0.0492813
0.055589
0.114191
-0.0227014
-0.180422
-0.00249475
0.287112
0.152081
-0.254789
-0.261392
0.172889
0.34083
-0.0582793
-0.401762
-0.132053
0.376488
0.374408
-0.111735
-0.292426
0.125608
0.432259
0.0986373
-0.295002
-0.053865
0.437817
0.428872
0.119401
0.17156
0.401373
0.216875
-0.14772
-0.0547389
0.35337
0.458163
0.295097
0.336055
0.445738
0.207761
-0.0959382
0.0289847
0.352797
0.390687
0.252713
0.304899
0.419974
0.241084
0.233426
0.241991
0.401312
0.535597
0.443077
0.17502
0.0918389
0.329482
0.520235
0.34147
0.0681496
0.140729
0.419177
0.44719
0.215705
0.131847
0.276653
0.35093
0.286643
0.300821
0.368429
0.258107
0.102911
0.227169
0.480483
0.40408
0.0752286
0.0366375
0.3748
0.539741
0.24639
-0.0486462
0.115652
0.491756
0.514931
0.189649
0.0813193
0.389263
0.584192
0.278233
-0.0785644
0.0755566
0.488775
0.589127
0.455947
0.480266
0.504679
0.201252
-0.140059
-0.0276514
0.388
0.58255
0.530336
0.553504
0.527614
0.171502
-0.184011
-0.0662618
0.331056
0.530569
0.500929
0.491133
0.482522
0.31028
0.539496
0.35781
0.342417
0.537075
0.633576
0.453202
0.294593
0.441273
0.662728
0.585656
0.336867
0.343446
0.587225
0.659765
0.458761
0.349892
0.505515
0.640822
0.549172
0.429138
0.486331
0.582213
0.552802
0.482689
0.502243
0.552782
0.541758
0.504381
0.510332
0.542674
0.548228
0.527338
0.506036
0.50262
0.510343
0.509282
0.502417
0.508106
0.505696
0.46882
0.452569
0.48647
0.466923
0.377533
0.401512
0.550389
0.54689
0.338663
0.251714
0.42756
0.553232
0.375706
0.182737
0.325652
0.542481
0.422556
0.187385
0.265443
0.517161
0.528412
0.308504
0.212167
0.345571
0.487412
0.320946
-0.0585926
-0.12426
0.220659
0.455106
0.237832
-0.042092
0.091557
0.416779
0.385685
0.0563263
0.00343047
0.325968
0.482672
0.207005
-0.0217412
0.199481
0.511283
0.392756
0.0350115
0.0318441
0.398669
0.563111
0.271442
-0.0117742
0.160112
0.52468
0.516208
0.144045
-0.010233
0.302297
0.602209
0.417428
0.0374479
0.0595913
0.431003
0.541295
0.209878
-0.0369695
0.193859
0.573341
0.545294
0.121991
-0.123367
0.120002
0.433048
0.346738
0.11496
0.242388
0.583636
0.543609
0.0312877
-0.306775
-0.0193922
0.454359
0.503669
0.292141
0.335318
0.548642
0.438805
-0.000663139
-0.222442
0.0470848
0.433591
0.201716
-0.184823
-0.204996
0.170881
0.372394
0.0852415
-0.236428
-0.0815717
0.283353
0.232936
-0.164631
-0.241358
0.144812
0.346494
-3.73437e-05
-0.327881
-0.0754045
0.361111
0.252629
-0.245769
-0.322909
0.165895
0.448863
0.0630421
-0.385041
-0.177456
0.370576
0.392995
-0.15592
-0.414914
0.0272672
0.476465
0.223327
-0.318546
-0.271414
0.294802
0.478649
-0.00856303
-0.399849
-0.0894459
0.450464
0.415595
-0.114979
-0.319657
0.0916082
0.437789
0.178285
-0.21697
-0.064715
0.416984
0.469396
-0.0117224
-0.310107
0.00795526
0.444947
0.378523
0.0332021
0.0546501
0.402722
0.438133
0.0174065
-0.261144
-0.00685529
0.371831
0.412349
0.287383
0.299312
0.462235
0.530025
0.360084
0.185249
0.282925
0.499253
0.453976
0.187731
0.1314
0.392558
0.535483
0.289349
0.0371392
0.200448
0.527149
0.473026
0.106858
0.0173653
0.358874
0.583613
0.315058
-0.0274092
0.10583
0.511035
0.541756
0.141633
-0.0580179
0.26015
0.589443
0.401689
0.000999779
0.0367713
0.459526
0.60627
0.258148
-0.0352962
0.166999
0.533255
0.501198
0.153486
0.0711621
0.400083
0.610892
0.343946
-0.0148404
0.0597856
0.43092
0.55235
0.323967
0.184392
0.368926
0.554345
0.383114
0.0591186
0.0786223
0.426571
0.582714
0.366052
0.174398
0.310435
0.523436
0.381817
0.624638
0.595133
0.393266
0.3525
0.510292
0.602573
0.51892
0.435907
0.484947
0.565641
0.550185
0.488897
0.490929
0.536736
0.543666
0.51059
0.503192
0.529335
0.540177
0.520978
0.510449
0.526025
0.534368
0.520813
0.511577
0.524329
0.535226
0.524538
0.512417
0.522279
0.537014
0.526468
0.505695
0.506076
0.51841
0.519147
0.517001
0.522875
0.519574
0.500478
0.490172
0.505429
0.525221
0.519729
0.494961
0.478283
0.47448
0.468595
0.45876
0.473951
0.534801
0.575795
0.520582
0.433935
0.408307
0.422056
0.444331
0.474645
0.503801
0.538517
0.557265
0.529079
0.496733
0.031199
0.507977
0.399484
-0.10381
-0.194523
0.267893
0.557607
0.249487
-0.123363
0.0494045
0.487004
0.493504
0.0816888
-0.064879
0.29409
0.584981
0.349727
-0.0215087
0.0725708
0.483619
0.559238
0.186598
-0.0321802
0.25414
0.593805
0.450383
0.0533692
0.0322751
0.42071
0.60576
0.297698
-0.012886
0.166193
0.55301
0.533006
0.125908
-0.0365019
0.301867
0.612371
0.40959
0.0207422
0.0637612
0.459599
0.559714
0.186777
-0.0751875
0.194804
0.591764
0.518922
0.104928
-0.00642545
0.336868
0.548558
0.257482
-0.0580611
0.137622
0.554606
0.566749
0.18186
0.000999837
0.288076
0.552036
0.349714
0.0259289
0.00580899
0.461463
0.323786
-0.221605
-0.316431
0.191975
0.488641
0.0836603
-0.386227
-0.170672
0.383928
0.380408
-0.181426
-0.39726
0.082733
0.488777
0.165671
-0.368087
-0.25459
0.326994
0.446543
-0.0868291
-0.418706
-0.0171195
0.480938
0.283021
-0.296311
-0.336733
0.226029
0.498741
0.0486438
-0.409384
-0.147392
0.425622
0.409099
-0.170701
-0.402077
0.0768549
0.507253
0.210641
-0.332129
-0.248827
0.328829
0.476368
-0.047523
-0.418902
-0.0510232
0.489221
0.371322
-0.205237
-0.329167
0.179045
0.480988
0.0825651
-0.355544
-0.100264
0.466079
0.461439
-0.108374
-0.357579
0.0867968
0.486085
0.183165
-0.330129
0.384617
0.591404
0.525775
0.253753
0.200905
0.463044
0.611013
0.361587
0.0746543
0.206704
0.553584
0.542427
0.162135
0.00898222
0.330897
0.60902
0.381992
0.00188023
0.0759126
0.487786
0.574126
0.18887
-0.05689
0.229002
0.591241
0.450245
0.0283775
-0.00396626
0.404972
0.604703
0.276672
-0.0597325
0.127538
0.544043
0.537486
0.125579
-0.0372366
0.305447
0.606803
0.384992
-0.00674986
0.0582908
0.480347
0.596428
0.23358
-0.0314384
0.211791
0.570393
0.46925
0.0631303
0.00286953
0.394339
0.619797
0.330464
-0.00229711
0.147979
0.531019
0.520431
0.111956
-0.047387
0.309843
0.619701
0.380406
-0.0387819
0.503691
0.348202
0.409121
0.579824
0.597602
0.466143
0.411173
0.500074
0.575548
0.53923
0.478652
0.489053
0.534859
0.541458
0.515741
0.507435
0.520219
0.526004
0.520661
0.52127
0.526016
0.521185
0.513074
0.518078
0.530158
0.527858
0.513605
0.511303
0.525957
0.533688
0.521891
0.509744
0.514073
0.524339
0.524275
0.517201
0.516349
0.523445
0.52603
0.516837
0.507721
0.509946
0.515091
0.516594
0.522284
0.52767
0.519915
0.506684
0.499865
0.499584
0.507314
0.517808
0.52056
0.519013
0.514553
0.504763
0.501386
0.501898
0.491294
0.489725
0.519686
0.547807
0.525767
0.473704
0.23904
-0.219148
-0.0740582
0.440856
0.505776
0.040569
-0.184357
0.19794
0.582066
0.378277
-0.0589672
-0.0206152
0.430856
0.583986
0.215865
-0.0698838
0.184483
0.573909
0.485922
0.071944
-0.00370937
0.379346
0.614214
0.332999
-0.0132302
0.125733
0.529483
0.559017
0.168621
-0.0233308
0.28765
0.611334
0.435081
0.0345134
0.0408517
0.442834
0.602625
0.266849
-0.0308228
0.183206
0.571
0.515951
0.0980247
-0.0264493
0.339306
0.614594
0.363945
-0.00525763
0.101251
0.512881
0.570851
0.176471
-0.0496635
0.250098
0.597805
0.445846
0.0566813
0.0677137
0.461567
0.606719
0.27458
0.000688579
0.221098
0.577254
0.194398
-0.320211
-0.18016
0.378408
0.43764
-0.114924
-0.39536
0.0480645
0.501951
0.230642
-0.338194
-0.29682
0.288354
0.481315
-0.0272931
-0.424766
-0.0763956
0.462795
0.333429
-0.257431
-0.368106
0.178057
0.513709
0.106695
-0.395417
-0.195581
0.3895
0.432725
-0.134337
-0.414443
0.035637
0.505715
0.254137
-0.320159
-0.308264
0.270419
0.498097
0.0134088
-0.414807
-0.10593
0.454296
0.381161
-0.210528
-0.386284
0.129215
0.513676
0.156412
-0.365525
-0.211581
0.375713
0.457356
-0.103086
-0.41825
0.0130575
0.506883
0.283321
-0.288041
-0.282917
0.290196
0.502735
0.00209432
-0.414324
-0.0789177
0.467913
0.461093
0.202421
0.269631
0.561143
0.588556
0.270397
0.0980979
0.350686
0.618334
0.443351
0.0768904
0.0980306
0.476067
0.596834
0.245848
-0.0299017
0.209127
0.581964
0.486228
0.064992
-0.0147668
0.37441
0.612798
0.318016
-0.0445844
0.0996172
0.522205
0.553387
0.143628
-0.0589736
0.265482
0.604232
0.423136
0.0106633
0.020805
0.438071
0.60182
0.252836
-0.0564347
0.163001
0.564197
0.514107
0.0944084
-0.0280174
0.341328
0.613852
0.353945
-0.0253265
0.0801355
0.501085
0.564718
0.170686
-0.0492422
0.258819
0.605502
0.432337
0.00439907
0.00110075
0.427379
0.589944
0.210693
-0.111203
0.142783
0.562429
0.440307
0.596671
0.556115
0.424195
0.424846
0.541265
0.58501
0.510274
0.454679
0.495948
0.553159
0.54464
0.504844
0.49967
0.52275
0.531725
0.522335
0.517643
0.520496
0.519386
0.517126
0.522377
0.527585
0.521205
0.511818
0.515447
0.527324
0.528511
0.517425
0.511988
0.52012
0.527988
0.522863
0.512957
0.513843
0.524056
0.527828
0.520131
0.51314
0.515794
0.521662
0.5209
0.515275
0.515256
0.523123
0.527502
0.519601
0.507424
0.506891
0.518769
0.526302
0.522387
0.516547
0.516035
0.518193
0.508954
0.485996
0.485316
0.524816
0.549048
0.512076
0.468682
0.496711
0.559703
0.0761679
0.53564
0.383439
-0.106996
-0.128869
0.355426
0.578754
0.209292
-0.136171
0.101152
0.542335
0.497469
0.0616549
-0.0573802
0.32992
0.611257
0.35267
-0.0225902
0.0841724
0.50331
0.574443
0.191413
-0.0354106
0.253163
0.60117
0.460131
0.0545821
0.0260292
0.419891
0.613996
0.301116
-0.0248355
0.151031
0.550343
0.541107
0.137435
-0.0221277
0.315548
0.616739
0.404281
0.0138989
0.0638892
0.474782
0.594465
0.233542
-0.0334025
0.217618
0.585607
0.486424
0.0840055
0.0260504
0.408334
0.617106
0.311818
-0.0202463
0.152057
0.549552
0.544929
0.168241
0.0393196
0.368257
0.628602
0.414948
0.0927339
0.0216382
0.503627
0.304339
-0.277248
-0.316015
0.245662
0.500384
0.0326563
-0.409772
-0.118722
0.437519
0.364704
-0.223797
-0.389144