# vtk DataFile Version 3.0
PFC-RG simulation results
ASCII
DATASET STRUCTURED_POINTS
DIMENSIONS 64 64 1
ORIGIN 0 0 0
SPACING 1 1 1
POINT_DATA 4096
SCALARS psi double
LOOKUP_TABLE default
0.501206
0.554939
0.5385
0.472563
0.48428
0.530011
0.525492
0.5096
0.530254
0.546098
0.521868
0.493895
0.512925
0.557955
0.557423
0.499162
0.471643
0.538631
0.59195
0.524043
0.441726
0.505407
0.608729
0.555554
0.448582
0.496609
0.614423
0.566593
0.424047
0.436533
0.577136
0.615256
0.530311
0.482416
0.496558
0.490068
0.448261
0.418263
0.435592
0.479738
0.524068
0.54626
0.405458
0.0676463
-0.0849211
0.207199
0.552144
0.567497
0.508252
0.617322
0.520977
-0.00559028
-0.352243
-0.0093191
0.520149
0.614096
0.516932
0.592995
0.517031
0.0442624
-0.297784
-0.0464425
0.429109
0.596747
0.0765452
0.0751502
0.312143
0.547789
0.463149
0.110792
-0.0167098
0.29951
0.581764
0.372436
-0.00865043
0.0392412
0.441159
0.565552
0.222566
-0.0534514
0.156147
0.522728
0.48405
0.114228
-0.0177853
0.268855
0.509001
0.3704
0.146828
0.171296
0.310654
0.330473
0.328796
0.401116
0.357253
0.168658
0.159543
0.40047
0.490969
0.290622
0.203512
0.429345
0.5705
0.317937
0.0362905
0.174968
0.454657
0.380094
0.184179
0.301376
0.460427
0.293011
0.138547
0.345566
0.505229
0.231406
-0.0179073
0.218482
0.500783
0.339042
0.123122
0.304996
0.512661
0.310939
0.0232155
0.107037
0.408729
0.50934
-0.240836
-0.271457
0.080057
0.456422
0.342802
-0.172326
-0.352251
0.0999408
0.487502
0.18117
-0.345497
-0.257045
0.304706
0.447304
-0.0511478
-0.404281
-0.0705611
0.413893
0.294183
-0.221688
-0.328958
0.104895
0.380859
0.114605
-0.215145
-0.150619
0.0908964
0.159282
0.140601
0.152271
0.0082657
-0.245475
-0.17892
0.238247
0.424266
0.17331
0.0539909
0.35813
0.498171
0.0507957
-0.389536
-0.14401
0.418789
0.576538
0.458414
0.501713
0.439767
-0.0262599
-0.354094
-0.0262334
0.489582
0.573561
0.469813
0.569306
0.515521
0.00379256
-0.37251
-0.0567411
0.494726
0.622767
0.453695
0.405779
0.458159
0.3573
0.0458908
0.028495
0.265437
0.529475
0.481246
0.152825
0.031921
0.339563
0.60662
0.392002
0.0259681
0.0943402
0.488604
0.578866
0.223498
-0.0109998
0.239477
0.569827
0.457351
0.0920067
0.0545116
0.385916
0.548325
0.302728
0.0641217
0.163518
0.369237
0.383213
0.311421
0.292599
0.178906
-0.00943384
0.0684886
0.422144
0.523939
0.187284
-0.00176939
0.307433
0.536486
0.215615
-0.127791
0.0918108
0.481563
0.447841
0.277889
0.429042
0.522534
0.147883
-0.176061
0.0933448
0.506594
0.479338
0.322139
0.466672
0.527372
0.128949
-0.195803
0.0752527
0.488779
0.471681
0.283844
0.347575
0.497599
0.435566
0.416665
0.513291
0.513282
0.449481
0.469625
0.537916
0.548834
0.519078
0.510841
0.523114
0.5315
0.529941
0.520935
0.51252
0.518168
0.535685
0.539745
0.520682
0.502255
0.516412
0.550273
0.552454
0.506096
0.473307
0.520718
0.580002
0.536396
0.434541
0.449489
0.562192
0.545198
0.403078
0.409294
0.580745
0.515903
0.091911
-0.133283
0.207285
0.595708
0.543124
0.402433
0.535453
0.537879
0.0873545
-0.237698
0.0893126
0.555771
0.543444
0.380854
0.506352
0.526349
0.0827533
-0.253281
0.0550593
0.51242
0.515654
0.379226
0.50368
0.495039
0.0608312
-0.219999
0.0782474
0.467157
0.494931
0.255021
0.564943
0.398713
-0.00727294
0.0297929
0.455685
0.584033
0.219704
-0.0555152
0.187303
0.565965
0.487834
0.0735589
-0.0296329
0.339554
0.601134
0.345253
-0.0225386
0.0722878
0.474613
0.554266
0.196192
-0.0446356
0.186277
0.531449
0.485726
0.13033
-0.0399177
0.192142
0.499253
0.489157
0.252407
0.175408
0.334423
0.351243
0.0483509
-0.11625
0.192494
0.520832
0.460353
0.375095
0.548524
0.517415
0.00746442
-0.335202
0.0144621
0.51696
0.54998
0.43159
0.561543
0.527032
0.0141821
-0.344621
-0.00617157
0.499345
0.550905
0.455893
0.577296
0.496144
-0.00829346
-0.255844
0.113653
0.412038
0.221374
-0.0573085
0.419194
0.237678
-0.295391
-0.256099
0.303797
0.469218
-0.0337951
-0.413356
-0.0723447
0.457896
0.347936
-0.231497
-0.371896
0.146405
0.50451
0.136669
-0.373508
-0.222987
0.342501
0.430135
-0.0857505
-0.392955
-0.0339643
0.420963
0.295255
-0.191054
-0.332823
0.0389278
0.396098
0.273628
-0.13071
-0.266811
0.0344173
0.345561
0.315833
0.238739
0.407122
0.43976
0.0699985
-0.1535
0.168439
0.503697
0.366017
0.181096
0.37423
0.496291
0.154355
-0.111181
0.180926
0.522226
0.38996
0.201135
0.389818
0.505045
0.164611
-0.0833037
0.203637
0.491782
0.34366
0.244187
0.474792
0.425547
-0.0974629
0.106717
0.512874
0.397133
0.0149443
0.0648488
0.478602
0.588782
0.226163
-0.0361953
0.208822
0.579687
0.50226
0.0998824
0.00459379
0.36729
0.615243
0.354674
-0.00043391
0.112127
0.508717
0.561337
0.199742
0.00213814
0.261007
0.557015
0.451259
0.135385
0.0747055
0.336944
0.551874
0.391472
-0.0114377
-0.173459
0.136447
0.526736
0.56387
0.465254
0.545483
0.46514
-0.0374262
-0.362038
-0.00472067
0.519201
0.599947
0.508468
0.608486
0.513157
-0.0433479
-0.403855
-0.033093
0.520118
0.610328
0.518394
0.617841
0.514646
-0.0436772
-0.38905
-0.0198649
0.495676
0.568977
0.515697
0.632914
0.504392
0.0235259
0.457726
0.565589
0.533046
0.457333
0.487324
0.541862
0.530454
0.50536
0.516132
0.527133
0.514993
0.508877
0.521831
0.530907
0.523635
0.513702
0.514814
0.526391
0.532796
0.520404
0.504741
0.518297
0.547865
0.535681
0.491295
0.49927
0.55905
0.55611
0.494907
0.510893
0.54848
0.431512
0.304915
0.428449
0.566153
0.366561
0.135907
0.29901
0.505934
0.302514
0.0777095
0.285944
0.515657
0.317671
0.109561
0.325247
0.520879
0.258938
0.0148605
0.257258
0.518772
0.319221
0.0997475
0.314334
0.514176
0.260044
0.0207106
0.253547
0.516494
0.350772
0.133921
0.280588
0.487042
0.436787
0.344161
0.183478
0.280326
0.502046
0.470666
0.138378
-0.00254763
0.310965
0.600422
0.383504
-0.0112712
0.0476608
0.470278
0.58382
0.208956
-0.059093
0.201723
0.578761
0.478218
0.0568775
-0.025298
0.361592
0.607529
0.317392
-0.0508612
0.0941588
0.513932
0.514981
0.112036
-0.00466316
0.332838
0.565638
0.492401
0.445113
0.372997
0.0080962
-0.278213
0.00602763
0.496339
0.598107
0.510437
0.592442
0.499105
-0.0324242
-0.3845
-0.0298479
0.511747
0.597772
0.496163
0.597024
0.520975
-0.0216559
-0.395928
-0.0471693
0.508864
0.609514
0.494626
0.572229
0.538907
0.08957
-0.313967
-0.148974
0.347541
0.620306
-0.0655891
-0.223732
0.0464694
0.428513
0.350245
-0.165679
-0.366372
0.091988
0.504251
0.199883
-0.350067
-0.266687
0.321177
0.477597
-0.0464102
-0.419929
-0.0536445
0.472287
0.32826
-0.25807
-0.363263
0.176366
0.503828
0.0963808
-0.393743
-0.18034
0.378039
0.360824
-0.181194
-0.333329
0.1178
0.438162
0.339048
0.267913
0.28136
0.0775289
-0.0946449
0.151198
0.470939
0.40666
0.273414
0.443456
0.507726
0.117364
-0.179576
0.115126
0.511873
0.449548
0.283658
0.445852
0.52264
0.130344
-0.186696
0.099776
0.5156
0.469252
0.275027
0.398933
0.526708
0.24076
-0.127962
-0.0576982
0.330326
0.517491
-0.114897
-0.0686313
0.258644
0.563437
0.499844
0.130514
-0.0135429
0.310532
0.607202
0.398255
0.0118921
0.0689701
0.481325
0.591641
0.224846
-0.036465
0.220139
0.588
0.487069
0.0779828
0.0076234
0.387682
0.614087
0.32276
-0.0193703
0.139766
0.532012
0.508246
0.131087
0.0440048
0.325662
0.419357
0.243113
0.261962
0.460449
0.473605
0.423172
0.53089
0.460437
-0.00462888
-0.286817
0.0669038
0.530363
0.530796
0.398613
0.530472
0.521039
0.0453176
-0.295383
0.0332495
0.518227
0.537131
0.396003
0.520713
0.530147
0.0716404
-0.296175
-0.0141404
0.488585
0.572352
0.385283
0.376946
0.497091
0.433724
0.2216
0.388445
0.501147
0.489419
0.490345
0.521032
0.522393
0.509725
0.514485
0.524389
0.524667
0.520723
0.517967
0.517423
0.521269
0.525416
0.5221
0.516157
0.518054
0.5241
0.524591
0.522823
0.522887
0.517199
0.512784
0.525406
0.530019
0.497861
0.490336
0.555754
0.549015
0.347504
0.206842
0.388665
0.59951
0.524127
0.438231
0.56111
0.482572
-0.0141267
-0.311169
0.0516764
0.531967
0.548118
0.426914
0.555398
0.523444
0.0206684
-0.330819
0.00807243
0.514673
0.557091
0.432012
0.550059
0.527215
0.0415204
-0.316038
-0.0109754
0.474611
0.531258
0.395983
0.476366
0.575249
0.424668
0.430066
0.569822
0.343037
-0.0381279
0.0238524
0.456415
0.59625
0.241098
-0.0453772
0.184081
0.569248
0.504423
0.0884477
-0.0238074
0.347022
0.614717
0.353416
-0.0231186
0.082276
0.500227
0.56703
0.181755
-0.0424359
0.240886
0.577978
0.447251
0.0591804
-0.00130896
0.341298
0.575348
0.362523
0.0182748
0.0671084
0.438595
0.506919
0.109882
-0.118135
0.196724
0.523012
0.399824
0.238972
0.428056
0.517509
0.142963
-0.14131
0.152204
0.519254
0.417457
0.236018
0.412796
0.51776
0.157563
-0.132393
0.146767
0.508473
0.418409
0.253303
0.419348
0.489315
0.133173
-0.104306
0.176385
0.471452
0.364061
0.330475
0.521178
0.184407
-0.346883
-0.271797
0.306204
0.486946
-0.011569
-0.411473
-0.0881614
0.454166
0.36389
-0.220571
-0.378186
0.1424
0.51725
0.150115
-0.377131
-0.22745
0.359987
0.452459
-0.0926769
-0.410204
-0.00592396
0.478144
0.295431
-0.253876
-0.334187
0.142659
0.447221
0.177207
-0.166337
0.0105818
0.456493
0.436595
-0.111559
-0.406793
-0.000263546
0.533349
0.599456
0.498402
0.599961
0.510861
-0.0419273
-0.406635
-0.0406125
0.516562
0.610088
0.511938
0.610003
0.520652
-0.0334049
-0.402186
-0.0453024
0.501187
0.600988
0.525887
0.621564
0.497684
-0.0345354
-0.297502
0.0719404
0.409498
0.266312
0.171733
0.514373
0.393767
0.0393636
0.0825044
0.473089
0.583301
0.230327
-0.040053
0.1925
0.569946
0.504243
0.0955122
-0.0133906
0.352794
0.615848
0.356844
-0.0138495
0.0932628
0.507645
0.571643
0.187368
-0.0350717
0.249456
0.590093
0.467299
0.0898929
0.0345111
0.364689
0.579337
0.3869
0.116339
0.188935
0.485884
0.529463
0.2098
0.0188196
0.274959
0.507566
0.286844
0.0596404
0.283187
0.512581
0.284637
0.0509588
0.279747
0.516794
0.292537
0.0611399
0.288536
0.517096
0.283581
0.0499371
0.278995
0.511737
0.293893
0.0778876
0.293233
0.487637
0.279099
0.138785
0.378989
0.487277
0.215617
0.145663
0.4308
0.549817
0.530818
0.527896
0.533549
0.508973
0.497583
0.518529
0.529212
0.517316
0.511436
0.518777
0.52298
0.520332
0.518717
0.519598
0.520735
0.521389
0.519341
0.5159
0.51901
0.526227
0.521209
0.507226
0.512816
0.536318
0.537671
0.52351
0.539518
0.548231
0.468395
0.360908
0.389949
0.52042
0.544576
0.517875
0.593875
0.479666
-0.036385
-0.376931
-0.0280735
0.512926
0.60855
0.512554
0.607118
0.517653
-0.0343701
-0.40418
-0.0435903
0.513278
0.608812
0.510629
0.607532
0.522776
-0.0203497
-0.38964
-0.0530874
0.483576
0.603417
0.531393
0.59617
0.544488
0.261708
0.218116
0.157308
0.287721
0.517005
0.488579
0.147427
-0.00847181
0.303525
0.605028
0.396835
0.0014143
0.0562582
0.476151
0.589499
0.217182
-0.0468548
0.215467
0.587122
0.47959
0.0612232
-0.00964389
0.378867
0.614284
0.322014
-0.0420614
0.0921697
0.507586
0.549583
0.177295
-0.000574171
0.256997
0.483691
0.356394
0.186904
0.249315
0.341302
0.361601
0.465775
0.468983
0.134327
-0.111071
0.160543
0.507044
0.418238
0.253074
0.426841
0.518383
0.146288
-0.148788
0.138571
0.517467
0.43122
0.251456
0.419829
0.521504
0.160261
-0.14702
0.115364
0.51068
0.475019
0.265634
0.317064
0.463393
0.415668
0.277964
-0.00412922
0.0486233
0.345395
0.328403
-0.129108
-0.340429
0.0904524
0.500087
0.202344
-0.34839
-0.266274
0.323477
0.478246
-0.0496859
-0.420803
-0.0474469
0.477949
0.325137
-0.263593
-0.35986
0.186693
0.513484
0.105954
-0.391627
-0.197259
0.372583
0.415345
-0.117255
-0.37665
0.0056311
0.42826
0.394166
0.165436
0.0468278
-0.0667293
-0.12949
0.119411
0.475627
0.524942
0.451034
0.558033
0.498598
0.00812631
-0.318034
0.0255452
0.518647
0.548918
0.423141
0.547218
0.524978
0.0321769
-0.322918
0.00684886
0.513308
0.557293
0.415971
0.520629
0.541863
0.126769
-0.267882
-0.105814
0.362696
0.583648
0.228604
0.180299
0.27584
0.469787
0.467502
0.167877
0.0172475
0.310451
0.599044
0.39038
-0.000985136
0.0578121
0.478342
0.586937
0.209821
-0.0525921
0.214412
0.586917
0.478923
0.0653256
-0.000188922
0.38419
0.612145
0.327851
-0.0135397
0.129307
0.52428
0.542105
0.16628
-0.00492622
0.260074
0.534943
0.51915
0.386238
0.241887
0.00446829
-0.125765
0.129225
0.487148
0.516954
0.432133
0.546922
0.502109
0.0226412
-0.299683
0.0383106
0.51848
0.536746
0.407084
0.536428
0.524524
0.0411741
-0.309825
0.0164076
0.512263
0.54638
0.406199
0.516792
0.531489
0.108017
-0.263282
-0.0616564
0.390778
0.552414
0.058324
0.433133
0.578623
0.51314
0.497629
0.533743
0.527989
0.510007
0.522287
0.53229
0.519567
0.512648
0.522533
0.527355
0.520344
0.516077
0.518971
0.521116
0.521159
0.522454
0.522041
0.518058
0.515904
0.519266
0.524914
0.525898
0.514202
0.494898
0.50304
0.542968
0.52168
0.396681
0.340649
0.472659
0.563497
0.429214
0.332339
0.475208
0.493924
0.121452
-0.142502
0.146908
0.516902
0.440503
0.279099
0.44604
0.519778
0.130209
-0.170969
0.123276
0.516385
0.443549
0.270532
0.434647
0.518993
0.141227
-0.15879
0.120655
0.500564
0.43786
0.26665
0.389368
0.469877
0.231341
-0.00471153
0.487827
0.469792
0.0816548
0.0649954
0.45129
0.583107
0.241076
-0.0230055
0.213347
0.580052
0.50011
0.0945312
-0.0020797
0.36426
0.616923
0.353049
-0.0148042
0.0939841
0.50708
0.568444
0.178851
-0.048492
0.238922
0.581806
0.439965
0.0310818
-0.0267914
0.344102
0.58417
0.315451
-0.121462
-0.134437
0.293233
0.589671
0.496267
0.420513
0.576145
0.500652
-0.0362166
-0.384188
-0.0215686
0.521892
0.604946
0.502728
0.602854
0.520887
-0.0269797
-0.396773
-0.0396443
0.512255
0.603819
0.506218
0.606952
0.520051
-0.0279412
-0.384019
-0.0267015
0.492679
0.567269
0.498716
0.607871
0.47741
-0.0481772
0.253067
0.527967
0.251827
-0.305828
-0.274116
0.293817
0.473374
-0.0269229
-0.411213
-0.0704859
0.461081
0.348257
-0.233917
-0.371167
0.154169
0.514894
0.140045
-0.380091
-0.224842
0.358414
0.446312
-0.0972908
-0.412839
-0.0112443
0.467002
0.277172
-0.274733
-0.347623
0.141698
0.445088
0.127762
-0.320492
-0.233281
0.267455
0.455862
0.130267
-0.0623233
0.245336
0.507785
0.289565
0.0677557
0.297082
0.51568
0.263332
0.0160763
0.255242
0.516183
0.311462
0.0847955
0.303945
0.517668
0.268506
0.0281719
0.265874
0.511454
0.298156
0.088205
0.315278
0.499409
0.244338
0.0655003
0.327845
0.461376
0.11038
0.506926
0.625155
0.359775
-0.0541325
0.0149204
0.46517
0.587384
0.204586
-0.0728739
0.183705
0.569879
0.487468
0.0713181
-0.024379
0.351758
0.609795
0.344986
-0.0230952
0.0866128
0.499001
0.563863
0.186723
-0.0321952
0.243809
0.57399
0.456583
0.0979872
0.0452751
0.348444
0.5464
0.381921
0.1474
0.234206
0.53016
0.482842
-0.0413163
-0.358243
0.00416669
0.518614
0.590421
0.493847
0.598325
0.51642
-0.0379118
-0.413802
-0.0519172
0.512312
0.611319
0.511623
0.610221
0.524674
-0.0330163
-0.410281
-0.0509596
0.506909
0.606944
0.520642
0.616449
0.503672
-0.046086
-0.36253
0.0114348
0.482716
0.485281
0.270494
0.456448
0.52649
0.460283
0.464719
0.535184
0.541526
0.498897
0.492086
0.518481
0.530607
0.522201
0.51417
0.514524
0.51996
0.525296
0.525061
0.520044
0.51687
0.518177
0.521369
0.526639
0.527996
0.513486
0.498409
0.519367
0.557924
0.538598
0.473545
0.479613
0.55865
0.56265
0.502965
0.536973
0.51839
0.222648
-0.00481089
0.227498
0.527491
0.414321
0.232906
0.404985
0.52085
0.176221
-0.111295
0.165963
0.523475
0.408653
0.211574
0.393157
0.522669
0.176379
-0.119911
0.153641
0.518096
0.420517
0.235124
0.401309
0.506129
0.168078
-0.113247
0.131753
0.50651
0.532012
-0.192456
0.0310543
0.386876
0.587641
0.456436
0.122699
0.026311
0.339998
0.603842
0.389295
0.0201712
0.0871136
0.489856
0.584431
0.21643
-0.0313673
0.231431
0.586777
0.472068
0.0662862
0.0036819
0.379031
0.597473
0.306231
-0.0432392
0.0965101
0.493842
0.497877
0.105662
-0.0406598
0.237984
0.378478
0.148276
0.0620488
0.32277
0.485172
0.458623
0.535888
0.497394
0.0455541
-0.3018
0.00634457
0.509472
0.564166
0.439286
0.557267
0.535559
0.0323766
-0.342124
-0.0122346
0.512048
0.567637
0.438475
0.553483
0.532816
0.0395874
-0.330226
-0.0147343
0.503494
0.577118
0.422697
0.457451
0.497284
0.274052
-0.17734
-0.098807
0.224823
0.469276
0.283016
-0.199899
-0.329855
0.130875
0.501098
0.178693
-0.352298
-0.250498
0.327736
0.462814
-0.060537
-0.414127
-0.044658
0.460652
0.307358
-0.261058
-0.357631
0.159998
0.474616
0.089919
-0.389994
-0.221382
0.299509
0.31968
-0.169714
-0.350052
-0.00828783
0.151197
-0.140946
-0.224297
0.173734
0.457348
0.413977
0.445488
0.447963
0.0604316
-0.278305
0.00630428
0.491625
0.524175
0.370349
0.490452
0.520109
0.0761052
-0.279875
0.0249906
0.507372
0.527042
0.382968
0.512886
0.528181
0.0653193
-0.299787
0.000809262
0.501914
0.562579
0.400653
0.435206
0.474015
0.227359
0.261207
0.240712
0.369328
0.496269
0.399975
0.107466
0.0233858
0.335867
0.593435
0.363904
-0.0179511
0.0534469
0.470743
0.57321
0.202441
-0.0536116
0.20261
0.565652
0.472631
0.0749355
-0.0106047
0.343858
0.586796
0.340376
-0.0073081
0.086802
0.452119
0.479059
0.142728
0.0377603
0.300128
0.391644
0.153589
0.111108
0.368523
0.354244
0.0610284
0.122914
0.460203
0.461696
0.280404
0.39619
0.500107
0.150256
-0.183693
0.0723028
0.495672
0.472657
0.304148
0.447618
0.519939
0.126198
-0.194074
0.0952673
0.509743
0.456238
0.27619
0.422024
0.508538
0.15465
-0.143192
0.0956881
0.474871
0.483792
0.371792
0.518011
0.527441
0.443247
0.460305
0.535598
0.541714
0.512644
0.521246
0.535598
0.51869
0.504767
0.521088
0.539917
0.533941
0.513042
0.504483
0.524221
0.550583
0.540887
0.499151
0.493976
0.544714
0.560968
0.503536
0.479988
0.538911
0.538372
0.436407
0.433459
0.556148
0.544309
0.38573
0.409054
0.553458
0.345898
-0.0663587
0.00835432
0.477509
0.643965
0.533019
0.567619
0.515817
0.04752
-0.324662
-0.0281671
0.500727
0.602672
0.5012
0.597513
0.531517
-0.00174116
-0.378412
-0.0367301
0.505858
0.594809
0.499312
0.601279
0.511027
-0.0289195
-0.360474
-0.00285874
0.479428
0.520553
0.025382
0.442614
0.396113
0.0544995
0.0982593
0.490455
0.577332
0.213809
-0.0182221
0.243332
0.587843
0.483217
0.0967651
0.0288713
0.380405
0.594589
0.332477
0.0116266
0.134974
0.492499
0.511488
0.18087
0.029751
0.247191
0.447871
0.357829
0.1777
0.123491
0.14961
0.19799
0.241415
0.176115
0.040602
0.0990435
0.329258
0.333499
0.118494
0.148968
0.362004
0.29068
0.107159
0.253159
0.477093
0.342687
0.15311
0.335675
0.514163
0.254035
0.00208809
0.237797
0.513395
0.331114
0.113134
0.32348
0.518246
0.256772
0.0265541
0.275846
0.50254
0.26897
0.0826776
0.328657
0.457184
0.133501
-0.0758993
0.398367
0.262679
-0.239018
-0.206955
0.316785
0.440701
-0.0640402
-0.402841
-0.0441165
0.451474
0.315033
-0.237368
-0.350488
0.141267
0.465425
0.120318
-0.346554
-0.218425
0.276461
0.359926
-0.06073
-0.311205
-0.0723071
0.211459
0.144988
-0.0689264
-0.141959
-0.120414
-0.0852339
-0.0263272
-0.0473313
-0.197422
-0.211702
0.066863
0.339362
0.380393
0.349743
0.243453
-0.088584
-0.311384
-0.0289866
0.430556
0.543513
0.484049
0.587858
0.507058
-0.0382481
-0.416752
-0.0681166
0.491162
0.594798
0.49965
0.603592
0.521644
-0.0331582
-0.397705
-0.0335503
0.496164
0.570769
0.504508
0.615147
0.455956
-0.115468
0.3119
0.591936
0.411462
-0.000903719
0.040764
0.460722
0.565329
0.194372
-0.0595033
0.191912
0.551453
0.468053
0.0771504
-0.0214343
0.317863
0.574991
0.361885
0.0127748
0.056364
0.406772
0.520842
0.255137
0.0509677
0.182233
0.379799
0.35526
0.233958
0.20517
0.207722
0.20437
0.265046
0.30721
0.201876
0.112152
0.237052
0.432087
0.503771
0.488605
0.356317
0.0579209
-0.0808516
0.198051
0.498135
0.382657
0.193202
0.37182
0.51413
0.185664
-0.104955
0.165032
0.52327
0.403765
0.188812
0.3653
0.511099
0.181365
-0.108675
0.157026
0.508426
0.423057
0.264456
0.414558
0.474937
0.172649
0.507164
0.57589
0.531526
0.419924
0.439432
0.540489
0.565504
0.520889
0.496665
0.511033
0.537143
0.551732
0.534253
0.495132
0.495235
0.554649
0.58097
0.514315
0.460859
0.527259
0.603153
0.542515
0.454131
0.506018
0.603519
0.555632
0.447873
0.473337
0.56641
0.568121
0.503044
0.48813
0.529269
0.565338
0.520028
0.373196
0.297378
0.42711
0.530483
0.39207
0.308114
0.521602
0.597672
0.155089
-0.251811
0.0202537
0.524743
0.5698
0.42524
0.549591
0.568808
0.0909178
-0.312918
-0.0218596
0.500802
0.572187
0.441827
0.539374
0.530455
0.0980355
-0.248092
-0.00933028
0.44293
0.570325
0.112014
0.114135
0.32735
0.515
0.440249
0.162944
0.0811656
0.355788
0.571327
0.36603
0.0588537
0.145179
0.479957
0.518029
0.213164
0.0628548
0.26232
0.448429
0.367855
0.234996
0.233143
0.237878
0.214389
0.307846
0.434644
0.318386
0.0716906
0.103956
0.39417
0.480353
0.205118
-0.00411468
0.195424
0.532058
0.483004
0.0521919
-0.14795
0.177617
0.493016
0.329625
0.111487
0.324739
0.534203
0.180667
-0.253501
-0.0361295
0.460428
0.507591
0.331085
0.436867
0.514914
0.133871
-0.232454
0.019178
0.48961
0.537683
0.399646
0.496491
0.517508
0.129221
-0.229407
-0.0458525
0.416458
0.583503
-0.24113
-0.195412
0.172067
0.471374
0.317185
-0.148898
-0.292641
0.108479
0.434529
0.153286
-0.302144
-0.219113
0.250193
0.357678
-0.030871
-0.282168
-0.0733323
0.191018
0.156562
0.0155746
-0.0263788
-0.080198
-0.124945
0.0458329
0.274292
0.131488
-0.24849
-0.251688
0.17647
0.359643
-0.0297378
-0.398421
-0.155328
0.36707
0.394239
-0.10112
-0.318753
0.0962541
0.440716
0.126606
-0.285821
-0.0618848
0.428641
0.428317
0.145987
0.211072
0.39126
0.158633
-0.153959
0.0249809
0.415486
0.445137
0.300069
0.409486
0.480347
0.144979
-0.142936
0.0957302
0.472158
0.461344
0.268586
0.31547
0.478275
0.382824
0.0138305
0.0979104
0.371895
0.571583
0.462848
0.134591
0.0195893
0.300977
0.559541
0.377415
0.0218342
0.038487
0.383496
0.51336
0.260774
0.0571421
0.174388
0.356552
0.349754
0.281745
0.274987
0.212566
0.132528
0.253555
0.470158
0.396223
0.0898044
0.049813
0.377632
0.554937
0.278983
-0.0260289
0.116805
0.497138
0.538394
0.199223
0.0526155
0.355454
0.581789
0.287262
-0.0874915
0.0629995
0.491642
0.599395
0.466869
0.482451
0.466538
0.131963
-0.157001
0.0418587
0.448833
0.565374
0.515404
0.590258
0.495266
0.00773752
-0.313715
-0.00789029
0.481551
0.58859
0.464709
0.476421
0.517622
0.342141
0.422134
0.465391
0.471246
0.470391
0.513493
0.525766
0.485535
0.499101
0.586819
0.599606
0.491211
0.438488
0.542062
0.626689
0.537645
0.438037
0.507912
0.613544
0.555575
0.448141
0.490572
0.584451
0.557245
0.474693
0.489021
0.553883
0.553538
0.507155
0.499689
0.534268
0.552029
0.534237
0.505439
0.499887
0.513094
0.509812
0.497199
0.513488
0.524383
0.475244
0.440467
0.483899
0.480353
0.37688
0.380816
0.539411
0.5489
0.333226
0.255508
0.45654
0.55154
0.306347
0.128166
0.338105
0.514217
0.298162
0.114248
0.329337
0.54024
0.35789
0.119336
0.22244
0.4349
0.432246
0.399322
0.396176
0.187068
0.023699
0.189373
0.466712
0.455148
0.214951
0.142898
0.306053
0.408821
0.34134
0.2911
0.305111
0.240402
0.17699
0.309583
0.479987
0.347885
0.0563568
0.0861477
0.426239
0.548356
0.241431
-0.0245647
0.165769
0.528294
0.508373
0.129328
-0.0269852
0.28736
0.59414
0.414478
0.0294247
0.042312
0.416894
0.549684
0.241859
-0.0100359
0.191127
0.562374
0.564687
0.155355
-0.132735
0.0721838
0.422826
0.402392
0.176481
0.267114
0.585836
0.520832
-0.0217908
-0.330967
0.0205552
0.490745
0.527124
0.412327
0.508842
0.510718
0.142125
-0.161011
0.0183752
0.348338
0.421189
0.195548
0.27475
0.0680848
-0.145788
0.0154897
0.32982
0.298388
-0.0408857
-0.189742
-0.0118634
0.149619
0.118498
0.073491
0.0584606
-0.0750199
-0.178896
0.0279777
0.318591
0.176692
-0.256306
-0.28682
0.184256
0.429242
0.0371407
-0.386226
-0.163802
0.375056
0.389758
-0.154122
-0.4119
0.023912
0.476233
0.234739
-0.310893
-0.283978
0.277461
0.485168
0.017302
-0.391644
-0.11324
0.433381
0.444324
-0.0729124
-0.332504
0.0346753
0.425933
0.236687
-0.167585
-0.0725013
0.396983
0.478188
0.0189994
-0.258152
0.0694774
0.474403
0.421491
0.206813
0.283455
0.424974
0.266405
0.0748928
0.202957
0.385727
0.319239
0.242305
0.475001
0.399875
0.20591
0.271592
0.494437
0.489223
0.242379
0.115737
0.225938
0.332355
0.314724
0.309145
0.324761
0.210596
0.0879124
0.228921
0.488527
0.424829
0.0897739
0.0222112
0.361107
0.574796
0.308389
-0.0184434
0.120479
0.516012
0.544221
0.15571
-0.0396316
0.268164
0.594283
0.418329
0.020217
0.0392743
0.451843
0.609534
0.269006
-0.0412201
0.140705
0.517617
0.520444
0.180807
0.0602983
0.362604
0.603873
0.367816
-0.0230926
0.00723406
0.398624
0.578481
0.383898
0.250897
0.407046
0.507103
0.282744
0.0405653
0.163577
0.463528
0.545609
0.48448
0.507944
0.484505
0.311232
0.358776
0.625133
0.604362
0.396947
0.360628
0.529578
0.618421
0.511257
0.427771
0.513713
0.60741
0.544495
0.450369
0.494429
0.576202
0.548458
0.476121
0.491603
0.552282
0.553419
0.509249
0.498911
0.5296
0.54341
0.526099
0.51053
0.517786
0.530831
0.529728
0.520646
0.520755
0.52828
0.524412
0.512338
0.511439
0.519309
0.519403
0.516237
0.519893
0.517424
0.50115
0.492195
0.505564
0.522517
0.521983
0.505964
0.477356
0.44452
0.437708
0.459866
0.483683
0.524363
0.580833
0.556287
0.409167
0.260469
0.254144
0.39481
0.516203
0.508125
0.494117
0.533703
0.488135
0.375118
0.262704
0.415501
0.351769
0.108891
0.0242806
0.199466
0.339846
0.232618
0.113349
0.260763
0.473242
0.359836
0.0542994
0.0625422
0.409607
0.565411
0.272176
-0.0229476
0.140298
0.519075
0.533549
0.158393
-0.0249033
0.271895
0.592347
0.433845
0.0385873
0.0247115
0.416815
0.601292
0.2886
-0.0280589
0.149929
0.544274
0.535479
0.131665
-0.0409753
0.288766
0.612494
0.431428
0.0369234
0.0499706
0.436703
0.565675
0.220439
-0.0553367
0.175699
0.569716
0.549639
0.165161
-0.0140741
0.243914
0.500588
0.349252
0.065857
0.130581
0.451964
0.567759
0.336962
0.0913528
0.144312
0.343658
0.388389
0.33525
0.179762
0.214014
0.156497
-0.0212253
-0.0778672
0.0806825
0.167417
-0.0384322
-0.233348
-0.0310968
0.308807
0.199003
-0.249495
-0.313621
0.158567
0.442907
0.0708647
-0.384088
-0.197042
0.356042
0.412726
-0.121822
-0.409987
0.00683421
0.48244
0.269353
-0.300747
-0.330723
0.229584
0.498601
0.0511393
-0.407497
-0.152891
0.419708
0.41575
-0.158198
-0.406193
0.0570583
0.504655
0.23766
-0.313718
-0.270777
0.297765
0.485984
-0.0084184
-0.41067
-0.0917303
0.465434
0.428833
-0.117264
-0.331812
0.0774799
0.434723
0.210273
-0.147487
-0.00210197
0.443233
0.522817
0.131834
-0.162415
0.0132599
0.330947
0.3765
0.255578
0.331334
0.304329
0.339419
0.338279
0.331422
0.391449
0.407811
0.239
0.0699003
0.203767
0.483361
0.439997
0.100911
0.00936735
0.34018
0.575285
0.325459
-0.0168336
0.0996353
0.500867
0.553166
0.169539
-0.0461526
0.2493
0.595229
0.446891
0.0371238
0.012337
0.413578
0.608206
0.287923
-0.0433137
0.135521
0.544788
0.545522
0.140005
-0.0353686
0.292349
0.603332
0.401799
0.00366382
0.0412744
0.459727
0.604993
0.258074
-0.0342862
0.17416
0.547365
0.504148
0.123313
0.0135497
0.346841
0.599188
0.41003
0.129361
0.202076
0.481175
0.516163
0.257303
0.114748
0.303599
0.525614
0.490198
0.321759
0.453953
0.327618
0.421421
0.58729
0.570639
0.444463
0.439697
0.529311
0.53755
0.478196
0.482277
0.538771
0.54946
0.510039
0.495467
0.52341
0.539764
0.52591
0.512334
0.519051
0.529623
0.526816
0.517931
0.51705
0.524107
0.526223
0.520444
0.517074
0.521821
0.525982
0.522506
0.517712
0.517719
0.519956
0.520559
0.519952
0.52041
0.523373
0.524253
0.516334
0.506784
0.508785
0.51692
0.519238
0.520807
0.524939
0.520277
0.505254
0.493361
0.498619
0.521588
0.533986
0.518068
0.509128
0.52352
0.511122
0.462705
0.444063
0.479529
0.523238
0.522455
0.48085
0.451035
0.437197
0.357979
0.0701177
0.138005
0.388216
0.308399
-0.0273736
-0.0527345
0.322908
0.539044
0.273205
-0.0424656
0.0981613
0.490427
0.535771
0.168741
-0.033522
0.250101
0.585524
0.45019
0.0523428
0.0150954
0.401371
0.608801
0.310126
-0.0275206
0.126279
0.531229
0.551347
0.154261
-0.0366961
0.279105
0.607342
0.432301
0.027226
0.0272409
0.43166
0.604934
0.277801
-0.0306079
0.166756
0.560098
0.530818
0.119989
-0.0340163
0.308444
0.61182
0.405376
0.0219202
0.0659831
0.463107
0.58753
0.242132
-0.037325
0.181565
0.552577
0.505141
0.151363
0.0811741
0.398198
0.580467
0.338172
0.062345
0.165572
0.429042
0.279407
-0.0572071
-0.00585172
0.261238
0.161232
-0.257687
-0.330338
0.117679
0.411132
0.0661412
-0.393865
-0.234517
0.320519
0.411038
-0.107835
-0.417894
-0.0219392
0.469406
0.286212
-0.285972
-0.346842
0.204902
0.506777
0.0839117
-0.399777
-0.182697
0.396272
0.427612
-0.138693
-0.41318
0.035911
0.504808
0.25838
-0.315407
-0.314603
0.258916
0.501804
0.0316481
-0.410554
-0.127076
0.439898
0.402866
-0.180527
-0.399078
0.0845176
0.508138
0.212449
-0.323723
-0.248642
0.317161
0.481008
-0.0123835
-0.38771
-0.0595302
0.466777
0.406644
-0.0825084
-0.188836
0.241599
0.483595
0.143495
-0.204242
0.00535727
0.409214
0.346775
0.198663
0.269891
0.464618
0.434449
0.173256
0.0872617
0.34316
0.539043
0.318673
-0.00332469
0.0928686
0.480743
0.54988
0.179825
-0.0481778
0.231938
0.585798
0.456837
0.0471256
0.00133118
0.393856
0.609747
0.309452
-0.0353406
0.118109
0.530101
0.553372
0.151181
-0.0444596
0.273864
0.60658
0.431862
0.0250658
0.0261874
0.433747
0.605533
0.268795
-0.0493082
0.149983
0.553802
0.529491
0.117143
-0.0347354
0.310988
0.608772
0.392278
0.00747383
0.0611262
0.464845
0.584364
0.244254
-0.0104608
0.217952
0.574987
0.519008
0.153981
0.0588459
0.370437
0.563435
0.32271
0.0659132
0.216459
0.492215
0.349477
0.471829
0.472616
0.438826
0.490891
0.562172
0.540262
0.470896
0.467275
0.514833
0.532287
0.515054
0.509416
0.520242
0.523032
0.517672
0.518227
0.523687
0.523825
0.520332
0.519865
0.522115
0.522818
0.520698
0.518902
0.519842
0.522108
0.522337
0.520631
0.519929
0.520693
0.520968
0.519791
0.518451
0.519177
0.522223
0.523649
0.520516
0.51635
0.51612
0.518756
0.519224
0.517265
0.518408
0.523149
0.524209
0.51827
0.511267
0.509677
0.513769
0.521861
0.533917
0.537378
0.517602
0.498341
0.498302
0.486807
0.46885
0.49757
0.544051
0.529302
0.481908
0.475001
0.484633
0.229585
0.476025
0.28894
-0.0484608
0.0191533
0.388814
0.457827
0.109199
-0.0857392
0.205263
0.54884
0.42462
0.0364279
-0.00392264
0.376024
0.596399
0.317878
-0.0242295
0.107706
0.513747
0.560756
0.173188
-0.041059
0.256345
0.600071
0.449812
0.0412358
0.0170232
0.416144
0.611593
0.295422
-0.0360216
0.137928
0.543561
0.543513
0.139251
-0.0321561
0.29975
0.614144
0.417913
0.0204738
0.0468286
0.45507
0.603554
0.260345
-0.0337775
0.181258
0.563016
0.511535
0.114181
0.0027214
0.354496
0.61057
0.363549
0.0114917
0.107628
0.478026
0.551965
0.2822
0.145742
0.346159
0.541623
0.436243
0.247545
0.214321
0.431685
0.157496
-0.297615
-0.260457
0.188135
0.295817
-0.139661
-0.411776
-0.0477673
0.408453
0.23694
-0.301782
-0.358907
0.174263
0.482336
0.0869658
-0.394845
-0.205767
0.367907
0.432376
-0.115289
-0.416126
0.00596051