# vtk DataFile Version 3.0
PFC-RG simulation results
ASCII
DATASET STRUCTURED_POINTS
DIMENSIONS 64 64 1
ORIGIN 0 0 0
SPACING 1 1 1
POINT_DATA 4096
SCALARS psi double
LOOKUP_TABLE default
0.4935
0.534361
0.509888
0.446885
0.473714
0.539298
0.536298
0.496266
0.501002
0.534135
0.536712
0.510238
0.51338
0.549904
0.550309
0.499111
0.489665
0.566343
0.593858
0.498454
0.437588
0.539738
0.629206
0.535844
0.431274
0.507738
0.623869
0.559989
0.427329
0.454633
0.583277
0.60185
0.513174
0.473669
0.506211
0.521617
0.4903
0.453904
0.448503
0.468489
0.511441
0.551045
0.423112
0.094821
-0.0398917
0.256486
0.571175
0.555833
0.498822
0.611279
0.489404
-0.0471099
-0.350378
0.0356959
0.552568
0.613503
0.510606
0.590027
0.50338
0.0263375
-0.299414
-0.0306136
0.449475
0.616913
-0.000100636
0.0532115
0.313996
0.534115
0.449552
0.131089
0.0181906
0.30563
0.571618
0.395104
0.0471827
0.074759
0.43636
0.563167
0.256094
-0.00924498
0.171421
0.511076
0.478426
0.138312
0.0237043
0.288614
0.490598
0.354124
0.170864
0.202112
0.297977
0.298634
0.325205
0.401717
0.319949
0.124819
0.160105
0.423456
0.471426
0.209525
0.112759
0.39285
0.588176
0.333163
0.0186724
0.149021
0.443399
0.373545
0.171398
0.287228
0.455715
0.316622
0.196648
0.396746
0.494085
0.165478
-0.0759035
0.200858
0.508952
0.369538
0.181186
0.356012
0.510296
0.266143
-0.00542996
0.121334
0.421644
0.474051
-0.31709
-0.272951
0.107382
0.446743
0.302068
-0.196316
-0.353959
0.091185
0.472073
0.18194
-0.333476
-0.262995
0.280815
0.439672
-0.0292335
-0.38274
-0.0786674
0.389511
0.289435
-0.194717
-0.299458
0.100564
0.353504
0.119067
-0.163369
-0.116449
0.0598514
0.116251
0.142955
0.15739
-0.030199
-0.27216
-0.135855
0.283854
0.350867
-0.0358289
-0.179502
0.22682
0.493421
0.0892084
-0.385216
-0.168491
0.400582
0.564799
0.436752
0.468729
0.407302
-0.0357057
-0.325053
0.0172005
0.502134
0.548789
0.441083
0.551148
0.496994
-0.00429031
-0.347474
-0.0173539
0.504074
0.597505
0.437057
0.424209
0.467871
0.303464
0.022602
0.0462932
0.292491
0.521052
0.439815
0.110847
0.0047177
0.321308
0.590546
0.370723
-0.00588436
0.0586252
0.464047
0.569826
0.217529
-0.0254277
0.219297
0.555451
0.455467
0.099119
0.0573842
0.372924
0.532678
0.317596
0.109051
0.18417
0.338609
0.358193
0.339161
0.325399
0.174776
0.00283217
0.14479
0.497966
0.510476
0.0908325
-0.111461
0.24662
0.54287
0.250643
-0.113387
0.0847162
0.484177
0.471783
0.308874
0.445133
0.505988
0.104473
-0.215227
0.0794526
0.513574
0.503865
0.364366
0.501088
0.518093
0.0818323
-0.237483
0.0635225
0.496282
0.48306
0.299352
0.372986
0.51419
0.413391
0.429146
0.520164
0.512756
0.443818
0.46355
0.528711
0.538231
0.519892
0.523064
0.52449
0.514056
0.517466
0.530607
0.526526
0.513941
0.521594
0.53752
0.530692
0.507967
0.513672
0.548252
0.552839
0.505799
0.480418
0.537522
0.583781
0.519804
0.437158
0.492621
0.596449
0.535926
0.389645
0.428542
0.618159
0.581253
0.220584
0.0154655
0.295325
0.615926
0.541049
0.399913
0.531279
0.539939
0.107721
-0.199703
0.126505
0.565516
0.517908
0.342478
0.479822
0.518923
0.0988181
-0.212181
0.0978148
0.521419
0.485814
0.33949
0.482588
0.500907
0.0813022
-0.205689
0.0831151
0.473336
0.502808
0.267168
0.548609
0.369832
-0.0170727
0.0456142
0.470636
0.584481
0.225228
-0.0333105
0.206609
0.571069
0.49754
0.0995386
-0.00673286
0.343197
0.600809
0.35966
-0.00305688
0.0770188
0.469145
0.558012
0.20923
-0.0391137
0.182029
0.528406
0.482625
0.126924
-0.0241405
0.225334
0.50324
0.444823
0.191305
0.107375
0.257281
0.339774
0.17608
0.0644415
0.281084
0.503823
0.426525
0.371686
0.552697
0.504631
-0.0160579
-0.351108
0.013914
0.525837
0.563687
0.451145
0.576969
0.520423
-0.0122668
-0.367544
-0.0113011
0.507787
0.565973
0.471718
0.588518
0.504722
-0.00324472
-0.266294
0.0891961
0.396186
0.22771
-0.0520888
0.401161
0.208995
-0.309098
-0.249518
0.308808
0.457855
-0.0488572
-0.417106
-0.0707632
0.45569
0.345833
-0.230078
-0.373736
0.139306
0.502569
0.144203
-0.368507
-0.230344
0.333007
0.433334
-0.0751405
-0.391213
-0.0411744
0.416923
0.294848
-0.190127
-0.322098
0.0500227
0.377729
0.240144
-0.136631
-0.279937
-0.0511465
0.241191
0.291869
0.260838
0.381807
0.377118
0.0439633
-0.129101
0.193931
0.495627
0.331945
0.143965
0.349197
0.489823
0.171877
-0.0719156
0.217641
0.52535
0.356165
0.156498
0.360948
0.504516
0.191146
-0.0483826
0.224069
0.494912
0.337882
0.228635
0.451766
0.410001
-0.0960028
0.115771
0.512126
0.391546
0.00932025
0.06039
0.472831
0.576489
0.20642
-0.0560787
0.196005
0.572678
0.492781
0.0830159
-0.0146017
0.35481
0.611708
0.35296
-0.00759623
0.100889
0.501674
0.56243
0.202486
0.00017059
0.258872
0.559917
0.452753
0.133714
0.0793366
0.338883
0.534361
0.399944
0.0899351
-0.0382017
0.180092
0.48604
0.531439
0.444315
0.493438
0.411978
-0.0394529
-0.32644
0.0206109
0.521055
0.597312
0.511774
0.608805
0.502386
-0.0566255
-0.405658
-0.0251716
0.525733
0.61151
0.519962
0.618256
0.51248
-0.0439093
-0.389139
-0.026201
0.488773
0.570186
0.519519
0.633854
0.509232
0.0368704
0.461947
0.566501
0.539772
0.463048
0.485453
0.541096
0.535424
0.50623
0.509174
0.524147
0.522273
0.514789
0.516684
0.523015
0.524329
0.519765
0.516281
0.52257
0.530541
0.52263
0.507529
0.517587
0.546129
0.538785
0.496092
0.49522
0.552827
0.566179
0.506796
0.493555
0.545387
0.519302
0.430253
0.477034
0.565767
0.412205
0.205622
0.31926
0.490948
0.303796
0.0916091
0.284984
0.508136
0.330958
0.14416
0.352567
0.517755
0.230429
-0.0171276
0.237654
0.518446
0.341492
0.135232
0.3393
0.513943
0.241513
-0.00393296
0.232108
0.511082
0.365422
0.152166
0.289553
0.495223
0.451981
0.331825
0.163002
0.274068
0.506977
0.471494
0.139405
0.00789757
0.322642
0.604203
0.387049
0.000197147
0.0598313
0.475326
0.587313
0.217405
-0.0503868
0.204475
0.57879
0.481428
0.0624099
-0.022609
0.359922
0.606464
0.321255
-0.0496517
0.0826651
0.505654
0.535481
0.135775
-0.0326986
0.278738
0.550474
0.459555
0.312232
0.236486
0.00792348
-0.186538
0.0586025
0.489129
0.587415
0.51104
0.582507
0.480222
-0.0371785
-0.369656
-0.0138344
0.51371
0.589218
0.487115
0.590024
0.516971
-0.0170984
-0.383902
-0.0392432
0.507281
0.603949
0.487474
0.564925
0.54289
0.108222
-0.301976
-0.159067
0.331717
0.615703
-0.0683702
-0.249907
0.0263076
0.425208
0.347844
-0.172555
-0.369142
0.0932337
0.502719
0.19602
-0.351959
-0.267482
0.319791
0.477695
-0.0446271
-0.419964
-0.0563775
0.470299
0.329071
-0.25588
-0.362189
0.175172
0.503458
0.101081
-0.390047
-0.187535
0.374636
0.385342
-0.155606
-0.359158
0.0697987
0.427271
0.288196
0.0741829
0.0498524
-0.0167545
-0.068946
0.165114
0.439652
0.387504
0.287102
0.456302
0.498228
0.0977959
-0.193998
0.107394
0.511512
0.46212
0.306278
0.462434
0.521019
0.114305
-0.207
0.0837377
0.513326
0.48268
0.28898
0.401511
0.529547
0.252563
-0.128059
-0.0849541
0.301277
0.51301
-0.0734578
-0.0647306
0.247177
0.560153
0.498792
0.122845
-0.0229747
0.304983
0.603721
0.3929
0.00425153
0.0615205
0.476619
0.589439
0.22237
-0.0402794
0.216814
0.586269
0.486406
0.079064
0.0103046
0.388443
0.613449
0.328479
-0.00768193
0.144727
0.533053
0.523788
0.148578
0.0349989
0.332507
0.511035
0.347454
0.238435
0.342447
0.404525
0.423736
0.518031
0.414367
-0.0286963
-0.266538
0.0953293
0.536164
0.519978
0.387237
0.522767
0.518192
0.0524689
-0.279684
0.0456111
0.518524
0.52736
0.381686
0.508974
0.531543
0.0862013
-0.287353
-0.0224307
0.479717
0.575961
0.382408
0.354636
0.486713
0.466589
0.282974
0.417711
0.506445
0.492459
0.494048
0.520844
0.520591
0.510585
0.516954
0.524742
0.522737
0.519616
0.518935
0.518268
0.520457
0.52468
0.522639
0.515956
0.516486
0.524773
0.527865
0.522066
0.517083
0.517804
0.523764
0.530803
0.523622
0.498865
0.502232
0.55479
0.555544
0.429771
0.345833
0.474918
0.608776
0.530318
0.466561
0.567164
0.453583
-0.0376775
-0.306591
0.0651764
0.536647
0.550073
0.434421
0.562617
0.522269
0.0125206
-0.340429
0.000884558
0.514188
0.564489
0.440189
0.553146
0.530204
0.0470777
-0.31865
-0.0260697
0.463194
0.533334
0.39511
0.462941
0.577142
0.47142
0.450295
0.584573
0.351344
-0.0336853
0.0237785
0.455116
0.599491
0.247634
-0.0423433
0.182015
0.567897
0.507491
0.0922427
-0.02379
0.344843
0.614624
0.354834
-0.0244134
0.0783885
0.498676
0.567774
0.177633
-0.052038
0.237084
0.582253
0.442277
0.0414353
-0.00279936
0.365873
0.578731
0.311241
-0.0417111
0.0464121
0.436736
0.498252
0.11178
-0.0962537
0.212212
0.516333
0.385599
0.230119
0.422409
0.514302
0.1471
-0.130594
0.160844
0.519165
0.408873
0.223026
0.402427
0.518252
0.168788
-0.122036
0.148161
0.506692
0.419429
0.251958
0.413253
0.487844
0.139685
-0.102515
0.16379
0.454148
0.36033
0.301424
0.510366
0.190804
-0.340874
-0.277974
0.297043
0.488408
-0.00360981
-0.410563
-0.0955349
0.449556
0.367093
-0.216431
-0.379457
0.13865
0.516672
0.152312
-0.376318
-0.228673
0.359801
0.453539
-0.0939409
-0.412783
-0.003051
0.48329
0.287067
-0.272003
-0.327118
0.183701
0.462828
0.109166
-0.28972
-0.0941767
0.396105
0.394569
-0.149156
-0.432254
-0.0135752
0.528582
0.599254
0.495435
0.593577
0.508356
-0.0395963
-0.406641
-0.0447875
0.514379
0.612146
0.513398
0.609537
0.522992
-0.0287256
-0.402824
-0.0524965
0.496004
0.601454
0.525866
0.61953
0.501047
-0.0234888
-0.286987
0.0694299
0.380783
0.210822
0.146592
0.505241
0.404202
0.0513634
0.0808302
0.464921
0.583957
0.238791
-0.0361554
0.188598
0.566816
0.507739
0.101526
-0.0110768
0.351462
0.615608
0.360559
-0.00800285
0.0976287
0.509729
0.573631
0.190947
-0.0290017
0.258764
0.597765
0.46357
0.0797503
0.0419224
0.393001
0.592122
0.360195
0.0806675
0.186384
0.508526
0.534265
0.181622
-0.0234795
0.242072
0.502123
0.301613
0.0685406
0.279315
0.510091
0.286289
0.0459103
0.269584
0.515473
0.301694
0.0681952
0.288487
0.516663
0.284639
0.0472507
0.273811
0.510516
0.294313
0.0720669
0.283835
0.485834
0.288681
0.154523
0.391916
0.479924
0.174393
0.156213
0.434469
0.55332
0.537168
0.532593
0.533007
0.506976
0.498917
0.522372
0.530776
0.514992
0.509597
0.521132
0.526302
0.519167
0.514561
0.519161
0.524939
0.523396
0.515928
0.512606
0.520325
0.529235
0.522455
0.506936
0.5107
0.533273
0.536112
0.516854
0.524245
0.55013
0.514714
0.428437
0.427454
0.517975
0.532057
0.504518
0.576951
0.479221
-0.0175192
-0.368767
-0.0403768
0.503107
0.610675
0.512529
0.602336
0.521166
-0.0236841
-0.401956
-0.0516431
0.508009
0.609864
0.510546
0.606415
0.526623
-0.0153947
-0.392334
-0.060926
0.479511
0.602934
0.529821
0.59785
0.552615
0.266381
0.241629
0.157387
0.269556
0.504242
0.491948
0.152392
-0.0157059
0.291685
0.602464
0.400537
-0.00145852
0.0464913
0.470245
0.589575
0.214606
-0.0545489
0.209983
0.585867
0.4752
0.0518585
-0.0159595
0.378194
0.611133
0.312323
-0.0513035
0.0902014
0.51129
0.547962
0.155272
-0.0332765
0.256253
0.516193
0.339641
0.0727974
0.124481
0.304176
0.379967
0.466538
0.458716
0.138348
-0.112105
0.142881
0.496586
0.424784
0.257539
0.422813
0.520415
0.155327
-0.148012
0.130526
0.514354
0.433434
0.248065
0.412998
0.523579
0.171603
-0.136788
0.12057
0.51173
0.465106
0.238739
0.288048
0.457156
0.434945
0.286372
-0.010339
0.0264119
0.328705
0.333717
-0.117038
-0.344408
0.0756477
0.496111
0.211334
-0.343634
-0.272462
0.317411
0.479678
-0.0465246
-0.420792
-0.0476739
0.478359
0.322794
-0.266214
-0.356295
0.193428
0.51361
0.0992309
-0.395798
-0.193285
0.382971
0.422965
-0.127803
-0.399941
0.00368499
0.431546
0.302992
-0.0470678
-0.141413
-0.107685
-0.094161
0.116537
0.445044
0.516173
0.452198
0.550587
0.499488
0.0219314
-0.314572
0.0131906
0.511241
0.552842
0.424585
0.54485
0.529989
0.0401777
-0.326546
-0.00512516
0.509498
0.564663
0.424081
0.52546
0.546038
0.124551
-0.286824
-0.135119
0.345062
0.587644
0.21683
0.177678
0.273816
0.468321
0.477378
0.184826
0.0236211
0.304605
0.598062
0.402351
0.0128036
0.0624181
0.477534
0.590069
0.218893
-0.0421669
0.221515
0.589305
0.480422
0.0726197
0.0130111
0.394202
0.614138
0.32911
-0.00706814
0.137123
0.531795
0.550719
0.165941
-0.0174555
0.264489
0.560113
0.491676
0.271816
0.142275
0.00596626
-0.0900314
0.114464
0.454999
0.519119
0.446883
0.548667
0.507765
0.0380582
-0.297422
0.0237073
0.509569
0.538623
0.404224
0.529938
0.530192
0.055782
-0.30409
0.0115247
0.507902
0.542125
0.394292
0.503336
0.53232
0.125757
-0.243983
-0.0549802
0.384721
0.540587
0.0360212
0.428076
0.582032
0.510198
0.493547
0.538326
0.534892
0.508461
0.515432
0.531416
0.52641
0.517273
0.518627
0.521446
0.52176
0.522837
0.520488
0.514373
0.516109
0.526825
0.528101
0.514372
0.507387
0.519853
0.532191
0.524898
0.506945
0.496852
0.507887
0.53434
0.524733
0.447195
0.403528
0.491626
0.56047
0.446276
0.34346
0.455237
0.483463
0.143741
-0.126843
0.13558
0.50878
0.448622
0.281615
0.439647
0.524461
0.142141
-0.175421
0.105741
0.511223
0.454416
0.279982
0.437435
0.521135
0.138097
-0.174955
0.101162
0.497423
0.457476
0.296814
0.412271
0.473537
0.214095
-0.013605
0.479783
0.46104
0.061714
0.03872
0.435857
0.582047
0.239077
-0.0368153
0.19627
0.572533
0.498771
0.0869777
-0.0159863
0.35499
0.614259
0.346731
-0.027883
0.0845668
0.505812
0.563425
0.162329
-0.0628427
0.240736
0.586592
0.426897
0.0116447
-0.0232261
0.363809
0.584286
0.302359
-0.103526
-0.0888447
0.319309
0.585756
0.483941
0.402976
0.559153
0.509439
-0.0102083
-0.385477
-0.0534752
0.502793
0.609704
0.502706
0.596462
0.533609
-0.00204348
-0.392641
-0.0571503
0.500921
0.604594
0.503787
0.601923
0.52551
-0.0145608
-0.376059
-0.0269213
0.489139
0.561013
0.490113
0.602204
0.476612
-0.0519834
0.268404
0.532645
0.251991
-0.313753
-0.291754
0.279132
0.473771
-0.0190635
-0.412383
-0.0815305
0.454684
0.352381
-0.229424
-0.373906
0.149505
0.513995
0.140084
-0.380864
-0.222324
0.362909
0.443501
-0.107287
-0.41425
0.00269891
0.476095
0.262801
-0.293024
-0.335137
0.176945
0.455743
0.0974055
-0.359492
-0.260484
0.241649
0.429176
0.108947
-0.084038
0.226974
0.511025
0.302818
0.0563993
0.269334
0.513645
0.28271
0.0135195
0.231744
0.513033
0.332142
0.0950473
0.297758
0.51709
0.271976
0.0166757
0.246678
0.509661
0.317329
0.111343
0.329568
0.497836
0.220709
0.0262667
0.296677
0.458796
0.130989
0.508696
0.628696
0.377713
-0.0285009
0.0288853
0.465272
0.591396
0.221648
-0.0548209
0.190022
0.570807
0.496765
0.0885908
-0.0110473
0.356059
0.611789
0.352191
-0.0102846
0.0997668
0.506475
0.564567
0.187933
-0.0212588
0.261798
0.582606
0.447007
0.0872627
0.0573454
0.377214
0.556631
0.354304
0.101208
0.196389
0.510943
0.48425
-0.0324831
-0.371064
-0.0295152
0.500474
0.594686
0.490702
0.590691
0.538852
0.00111506
-0.411557
-0.0869602
0.490662
0.616274
0.513644
0.606302
0.537024
-0.0128046
-0.410831
-0.0690979
0.497221
0.610267
0.523424
0.616237
0.505091
-0.0476016
-0.372159
0.00166456
0.487115
0.505441
0.225616
0.424251
0.524948
0.48225
0.481213
0.53047
0.52983
0.50028
0.503931
0.521995
0.521107
0.515392
0.520483
0.523664
0.518317
0.51668
0.52315
0.527022
0.521152
0.512864
0.51415
0.527017
0.533405
0.514912
0.493192
0.512158
0.553449
0.538071
0.474786
0.477808
0.552808
0.560054
0.509278
0.552126
0.545741
0.249948
-0.0127237
0.188194
0.509308
0.429945
0.239081
0.392451
0.530452
0.209532
-0.102539
0.144119
0.513696
0.416391
0.204124
0.374532
0.527397
0.201835
-0.106377
0.150287
0.514814
0.414021
0.213653
0.379106
0.508601
0.197458
-0.0762395
0.157257
0.512135
0.519523
-0.231125
-0.0102909
0.354717
0.571366
0.44537
0.102725
-0.00112446
0.319395
0.595625
0.380631
0.0001699
0.0641473
0.477711
0.580307
0.206994
-0.0472979
0.220206
0.583071
0.465169
0.051941
-0.0069071
0.378525
0.594785
0.291275
-0.0585942
0.0959269
0.499186
0.488182
0.081539
-0.0553815
0.250744
0.407731
0.161591
0.0458688
0.30706
0.492694
0.461373
0.524273
0.510788
0.0836501
-0.296787
-0.0344225
0.480092
0.570289
0.443572
0.551814
0.553353
0.0633281
-0.344405
-0.0443751
0.496037
0.57656
0.444991
0.554405
0.543119
0.0484918
-0.342132
-0.0351158
0.500861
0.594873
0.445496
0.471679
0.492119
0.244538
-0.13833
-0.0787806
0.214347
0.44543
0.266863
-0.206262
-0.337547
0.118856
0.494406
0.180437
-0.35165
-0.2572
0.320149
0.461453
-0.0589077
-0.41466
-0.0459917
0.460601
0.30575
-0.264064
-0.354702
0.168899
0.475007
0.0756023
-0.399653
-0.20825
0.318385
0.311177
-0.204696
-0.373822
0.00372701
0.170476
-0.170869
-0.311439
0.0959226
0.441677
0.427852
0.454251
0.472919
0.0994663
-0.276805
-0.0367095
0.462735
0.528233
0.364794
0.472787
0.534526
0.114873
-0.271584
-0.00139906
0.490581
0.527563
0.373449
0.497982
0.535584
0.0895098
-0.285943
-6.73202e-05
0.493865
0.541889
0.367635
0.408767
0.465247
0.227423
0.32501
0.303232
0.398738
0.495938
0.401582
0.127576
0.0462464
0.343601
0.595752
0.37985
0.0086902
0.071761
0.47552
0.578225
0.216945
-0.0362204
0.212998
0.569243
0.476434
0.0837048
0.0031726
0.356796
0.588978
0.33131
-0.0101675
0.103798
0.472359
0.472411
0.109727
0.0128897
0.303585
0.394261
0.109468
0.0276247
0.309674
0.347392
0.0544762
0.089502
0.44132
0.471484
0.278717
0.382394
0.521141
0.193054
-0.187446
0.0246603
0.475062
0.491794
0.312024
0.436759
0.528864
0.149511
-0.199096
0.0649403
0.496772
0.470461
0.293245
0.430565
0.507829
0.134811
-0.179458
0.0699875
0.478397
0.510489
0.346029
0.516924
0.528445
0.431456
0.45111
0.543966
0.553793
0.507463
0.505628
0.532536
0.531121
0.512836
0.514512
0.531602
0.537209
0.522577
0.506397
0.516945
0.54471
0.542763
0.504877
0.497166
0.54228
0.554362
0.499751
0.483719
0.54229
0.529105
0.418128
0.423948
0.560633
0.545688
0.374031
0.406534
0.580576
0.363553
-0.118962
-0.0856862
0.427393
0.643292
0.521697
0.552515
0.555254
0.115266
-0.318701
-0.0841509
0.466936
0.611778
0.501455
0.584851
0.552392
0.0446755
-0.364835
-0.0637729
0.484623
0.595808
0.499442
0.59667
0.520425
-0.00456535
-0.336018
0.0140159
0.485787
0.517068
-0.0586901
0.36712
0.338952
0.00867148
0.061478
0.464641
0.555214
0.185003
-0.0506292
0.217053
0.569478
0.465745
0.0765076
0.00971448
0.366444
0.585242
0.323634
0.00206414
0.126815
0.485775
0.50428
0.17534
0.0303219
0.251564
0.446907
0.344979
0.156412
0.105607
0.146022
0.20449
0.237864
0.152801
0.0266461
0.136818
0.404432
0.360368
0.0506005
0.0742465
0.378726
0.346832
0.0921529
0.186704
0.462959
0.383613
0.161417
0.302389
0.51168
0.286023
0.00121946
0.201206
0.506141
0.361899
0.126021
0.307558
0.516546
0.272598
0.0180889
0.242459
0.494072
0.306359
0.133201
0.354944
0.447889
0.0962368
-0.0799114
0.360829
0.227268
-0.259818
-0.224616
0.29399
0.418437
-0.0764689
-0.404423
-0.0476672
0.438977
0.304685
-0.235864
-0.346198
0.135029
0.454446
0.120035
-0.333397
-0.204706
0.277573
0.349058
-0.0691405
-0.302707
-0.0514004
0.221159
0.125139
-0.108672
-0.171697
-0.123055
-0.0801645
-0.0532943
-0.116533
-0.260101
-0.209549
0.118997
0.357097
0.338629
0.351343
0.360695
0.0411646
-0.308464
-0.124038
0.372186
0.556234
0.493333
0.576519
0.532777
0.016173
-0.411138
-0.118638
0.456616
0.598027
0.495253
0.589208
0.542585
0.0103571
-0.39909
-0.086098
0.458973
0.574592
0.505848
0.59227
0.439419
-0.110391
0.372379
0.616978
0.440653
0.0369457
0.0647802
0.464153
0.566042
0.211726
-0.0254983
0.21927
0.559538
0.476557
0.10345
0.00816964
0.328066
0.572246
0.368995
0.0363171
0.0825731
0.419231
0.514685
0.241082
0.0509315
0.202397
0.396198
0.34153
0.196115
0.175459
0.202943
0.205074
0.236983
0.241662
0.134747
0.0882951
0.252189
0.432762
0.477815
0.509977
0.467578
0.173846
-0.063899
0.141035
0.472783
0.413315
0.209113
0.352978
0.520112
0.224565
-0.0968548
0.132191
0.509912
0.421805
0.187386
0.344639
0.52575
0.224156
-0.103865
0.121503
0.495527
0.433037
0.233801
0.352604
0.468484
0.243447
0.462847
0.548983
0.545552
0.437351
0.433347
0.528748
0.565046
0.523137
0.494681
0.505431
0.52981
0.546844
0.533519
0.496755
0.498739
0.560621
0.580747
0.503538
0.45584
0.542016
0.618945
0.531482
0.430626
0.503008
0.617292
0.557259
0.431507
0.460537
0.56719
0.571223
0.499212
0.479731
0.522827
0.565503
0.523058
0.363642
0.273305
0.416866
0.55122
0.418207
0.31012
0.514894
0.624557
0.20718
-0.240597
-0.0239779
0.49124
0.575136
0.424384
0.534551
0.590469
0.146454
-0.294273
-0.0536598
0.480313
0.579937
0.437486
0.533252
0.574437
0.16364
-0.244815
-0.0563866
0.434228
0.609988
-0.0339063
0.0248083
0.286112
0.449651
0.351826
0.11911
0.0848118
0.333582
0.500993
0.303882
0.0425271
0.139017
0.437952
0.461276
0.200608
0.0990327
0.277351
0.400937
0.316291
0.252516
0.292958
0.255158
0.179378
0.281474
0.442437
0.332112
0.0729949
0.104083
0.396514
0.476182
0.20385
0.0165404
0.230117
0.552122
0.479026
0.0420207
-0.150917
0.170663
0.467018
0.29622
0.0958307
0.334285
0.564659
0.211815
-0.262103
-0.0851183
0.428678
0.511837
0.321156
0.403398
0.518388
0.182565
-0.217533
-0.029691
0.443359
0.529187
0.39015
0.479249
0.537309
0.177239
-0.216449
-0.0744274
0.378867
0.515454
-0.253513
-0.18495
0.163102
0.391193
0.218309
-0.165148
-0.237651
0.116811
0.363042
0.100944
-0.266431
-0.161879
0.229845
0.282734
-0.0481195
-0.207366
-0.00805449
0.161122
0.095721
0.035651
0.0604943
-0.0342055
-0.150006
0.0151035
0.27693
0.142663
-0.250327
-0.256582
0.170977
0.339966
-0.0555415
-0.402234
-0.137455
0.372149
0.37311
-0.11425
-0.29721
0.121937
0.43031
0.0965983
-0.295131
-0.0510184
0.437807
0.426339
0.127461
0.188781
0.402227
0.196773
-0.155648
-0.0351983
0.37097
0.455183
0.297548
0.359261
0.459523
0.193713
-0.109505
0.043873
0.385666
0.412069
0.249515
0.293642
0.434712
0.289994
0.191847
0.21039
0.404408
0.557916
0.448508
0.155622
0.0720969
0.331415
0.543712
0.365505
0.0686296
0.121137
0.41683
0.473254
0.226395
0.101134
0.25007
0.371498
0.316575
0.285731
0.329488
0.249076
0.122616
0.237066
0.472194
0.398037
0.0782195
0.0383603
0.37214
0.539309
0.248821
-0.0492814
0.111793
0.490129
0.514857
0.184856
0.0721152
0.382855
0.582281
0.275931
-0.0812556
0.076186
0.490198
0.58887
0.459886
0.486802
0.497244
0.179937
-0.146527
-0.00737212
0.406797
0.580152
0.528523
0.565442
0.522888
0.133783
-0.217578
-0.0574615
0.369787
0.557756
0.501883
0.489923
0.505723
0.349924
0.533936
0.402532
0.381218
0.520746
0.606291
0.484919
0.359102
0.458047
0.638744
0.597515
0.393708
0.376841
0.578227
0.657357
0.481105
0.365382
0.502785
0.641553
0.556349
0.427591
0.480638
0.585431
0.558788
0.480063
0.496891
0.554017
0.545446
0.503672
0.507771
0.543223
0.549891
0.526363
0.504849
0.505206
0.513568
0.507777
0.499179
0.510133
0.511022
0.469811
0.45035
0.48761
0.468905
0.373622
0.395604
0.549446
0.546026
0.333775
0.252765
0.437359
0.553403
0.357545
0.166756
0.323296
0.532968
0.397565
0.173474
0.27732
0.528123
0.508711
0.273681
0.197548
0.349786
0.483172
0.347368
0.0424953
-0.0801449
0.144479
0.389741
0.319573
0.100237
0.114157
0.335039
0.369597
0.150214
0.0793331
0.312418
0.453607
0.231118
0.0253413
0.217491
0.502391
0.385221
0.0407412
0.0453246
0.407211
0.558821
0.261196
-0.01413
0.166261
0.528164
0.513336
0.141421
-0.0089979
0.303587
0.601245
0.417525
0.0405648
0.0618776
0.43026
0.542797
0.217521
-0.0296313
0.193649
0.571084
0.550013
0.12804
-0.128348
0.108115
0.43069
0.356819
0.125805
0.247926
0.584045
0.535247
0.015715
-0.317332
-0.0199684
0.459667
0.523608
0.336402
0.379786
0.549032
0.388863
-0.0474609
-0.225288
0.0521107
0.402309
0.213598
-0.0937447
-0.181063
0.0652681
0.289106
0.16958
-0.0895193
-0.072774
0.172914
0.191727
-0.0841532
-0.172056
0.12231
0.302462
0.00785081
-0.291423
-0.0619877
0.348182
0.239653
-0.244501
-0.313206
0.169947
0.441559
0.0537722
-0.384851
-0.171008
0.372549
0.389419
-0.15812
-0.413607
0.0282821
0.475841
0.223323
-0.318065
-0.273416
0.291266
0.478965
-0.00396506
-0.398663
-0.0955868
0.446043
0.422037
-0.105861
-0.322824
0.0799036
0.43586
0.189644
-0.207288
-0.0650857
0.413262
0.47089
-0.00205048
-0.296311
0.0177069
0.456549
0.416794
0.103542
0.118252
0.416077
0.411437
0.0135168
-0.213875
0.0318854
0.351172
0.391433
0.334329
0.315362
0.394184
0.471923
0.408401
0.27252
0.279979
0.423271
0.426608
0.234211
0.165063
0.370784
0.506353
0.290285
0.0489625
0.199464
0.518189
0.466709
0.10466
0.0172693
0.358115
0.58028
0.311837
-0.0263035
0.109141
0.511573
0.539863
0.140967
-0.0570626
0.260729
0.589562
0.402013
0.000202554
0.033664
0.45635
0.605954
0.258985
-0.0382455
0.159894
0.529179
0.505543
0.159944
0.0696951
0.393211
0.609565
0.348172
-0.0154325
0.0521615
0.425651
0.558843
0.344
0.207535
0.377765
0.549457
0.39037
0.0916728
0.114303
0.438589
0.579496
0.38903
0.235542
0.355437
0.511352
0.351629
0.633896
0.611376
0.382721
0.335251
0.518802
0.62015
0.512179
0.420488
0.493934
0.585857
0.549994
0.47658
0.494378
0.54991
0.544363
0.502417
0.503964
0.537509
0.542702
0.517149
0.508649
0.52869
0.537164
0.521298
0.510708
0.52381
0.535754
0.52533
0.512483
0.522069
0.53751
0.52702
0.505277
0.505687
0.519523
0.520682
0.516914
0.521652
0.519015
0.500756
0.490405
0.505266
0.524988
0.520055
0.495012
0.475429
0.469253
0.465027
0.456253
0.469408
0.533724
0.583265
0.523705
0.418524
0.3855
0.411894
0.447678
0.476238
0.495788
0.53662
0.573585
0.539826
0.478642
0.0153673
0.496351
0.404716
-0.0904965
-0.189084
0.257448
0.537837
0.239532
-0.108233
0.0746826
0.490135
0.473131
0.0728985
-0.0443198
0.316127
0.582584
0.337559
-0.0177967
0.088159
0.490579
0.554341
0.183075
-0.0276846
0.259692
0.593621
0.446711
0.0519904
0.0340616
0.421989
0.604927
0.296826
-0.0127482
0.165711
0.552105
0.534593
0.129663
-0.0354046
0.299364
0.61254
0.415323
0.0247801
0.0598387
0.453571
0.561078
0.193536
-0.074405
0.186509
0.586966
0.526773
0.111298
-0.0202808
0.313472
0.542558
0.267704
-0.0576899
0.121147
0.541189
0.571079
0.191354
-0.00767747
0.263296
0.534023
0.3444
0.020366
0.0028952
0.442416
0.313249
-0.21501
-0.308323
0.182768
0.46594
0.0706558
-0.376448
-0.156003
0.377302
0.356246
-0.192808
-0.383596
0.0974225
0.482677
0.150216
-0.370062
-0.243892
0.332236
0.440325
-0.0932175
-0.4167
-0.0120556
0.481063
0.279326
-0.297656
-0.334677
0.227463
0.498169
0.0484055
-0.409019
-0.1486
0.424016
0.410766
-0.167443
-0.403544
0.0710914
0.506311
0.217545
-0.327686
-0.254769
0.321032
0.479348
-0.0375595
-0.417919
-0.0620538
0.484573
0.385921
-0.189255
-0.336871
0.157264
0.477927
0.104155
-0.336283
-0.0995745
0.463936
0.47666
-0.0845309
-0.351554
0.0719696
0.474896
0.192082
-0.310835
0.386155
0.579595
0.514149
0.252477
0.205322
0.461515
0.601206
0.352271
0.0727092
0.207611
0.548239
0.530376
0.153808
0.0105189
0.334285
0.604226
0.371881
-0.00266083
0.078919
0.489867
0.570129
0.183812
-0.0569576
0.232005
0.592067
0.448663
0.0280744
-0.00224193
0.406213
0.604901
0.277536
-0.0585481
0.12711
0.543096
0.53883
0.12771
-0.0389144
0.300711
0.605721
0.389481
-0.00397516
0.0540939
0.475237
0.599129
0.241526
-0.0297181
0.203984
0.565666
0.479106
0.0782669
0.00520205
0.385795
0.620255
0.34718
0.0150943
0.151642
0.528626
0.529198
0.131017
-0.0351528
0.30931
0.619229
0.392481
-0.0185686
0.508752
0.351112
0.408787
0.579312
0.598765
0.468652
0.414247
0.501262
0.572873
0.536459
0.481357
0.495106
0.537098
0.53867
0.514005
0.510261
0.523616
0.526049
0.519093
0.521528
0.527781
0.522061
0.512691
0.517696
0.530404
0.528369
0.514094
0.511519
0.52566
0.533306
0.522133
0.510427
0.514362
0.524154
0.52423
0.517435
0.5165
0.523442
0.526052
0.516831
0.507695
0.510029
0.51488
0.515862
0.5223
0.529026
0.519798
0.503173
0.497001
0.501767
0.511406
0.517311
0.515742
0.516772
0.517268
0.505658
0.495611
0.495311
0.491167
0.49397
0.520808
0.543627
0.52208
0.474673
0.246266
-0.210606
-0.0697979
0.440317
0.50258
0.0396523
-0.178677
0.205178
0.581775
0.373274
-0.0557211
-0.00739059
0.439598
0.579904
0.21022
-0.0638545
0.196647
0.577768
0.480438
0.0690814
0.0015503
0.385139
0.613442
0.328754
-0.0145278
0.127546
0.530327
0.557559
0.16675
-0.0246024
0.286475
0.610666
0.435603
0.0346367
0.0384985
0.440003
0.603669
0.270876
-0.0303826
0.178095
0.567795
0.520208
0.102723
-0.0309703
0.330278
0.614365
0.371935
-0.00440227
0.0898823
0.503586
0.574136
0.181667
-0.0571975
0.235243
0.592799
0.45213
0.0580614
0.0567282
0.450272
0.606354
0.278594
-0.00322997
0.210125
0.569294
0.196601
-0.320125
-0.183065
0.373806
0.429798
-0.12381
-0.398029
0.0506126
0.498819
0.218966
-0.345656
-0.292213
0.293461
0.474254
-0.0388342
-0.424813
-0.0670273
0.465276
0.324787
-0.263919
-0.36395
0.184507
0.512565
0.101209
-0.396657
-0.19241
0.391219
0.431556
-0.135209
-0.414248
0.0351101
0.505301
0.255931
-0.318455
-0.310708
0.266357
0.499388
0.0193383
-0.413797
-0.112956
0.44989
0.387769
-0.202282
-0.39053
0.117524
0.513171
0.16937
-0.358496
-0.220877
0.365594
0.46279
-0.0908787
-0.418678
0.00144548
0.50508
0.298597
-0.27449
-0.286128
0.281519
0.505539
0.0126203
-0.410937
-0.0844088
0.463824
0.457608
0.194876
0.262865
0.55869
0.58452
0.260607
0.0893704
0.348656
0.616044
0.432558
0.0636822
0.0933975
0.477142
0.591982
0.23497
-0.0354777
0.21177
0.582882
0.479984
0.0592502
-0.0131813
0.378419
0.612127
0.314835
-0.0441926
0.103049
0.523986
0.553243
0.144784
-0.0565908
0.266442
0.604491
0.425578
0.0139256
0.0207298
0.435724
0.602982
0.257949
-0.0544389
0.158743
0.561145
0.519261
0.101971
-0.0287977
0.334192
0.613515
0.364095
-0.0172069
0.0769199
0.495222
0.569312
0.183332
-0.0425016
0.255609
0.605325
0.444666
0.0185244
0.00346822
0.423474
0.592941
0.219626
-0.106913
0.140626
0.560491
0.439885
0.59293
0.555485
0.431084
0.432597
0.541281
0.580675
0.511558
0.461928
0.499256
0.548922
0.54114
0.508233
0.504773
0.522724
0.528544
0.521768
0.519981
0.521931
0.518976
0.51681
0.522616
0.527454
0.521126
0.51268
0.516191
0.526589
0.527448
0.518042
0.513575
0.520204
0.52649
0.522272
0.51423
0.514993
0.523543
0.526839
0.520403
0.514274
0.515999
0.520541
0.520197
0.516358
0.516787
0.522787
0.525725
0.519216
0.509097
0.507655
0.516756
0.524569
0.525153
0.521507
0.515757
0.512278
0.505317
0.487135
0.485747
0.52245
0.547359
0.512286
0.46853
0.49612
0.560448
0.0802947
0.536886
0.38537
-0.0997303
-0.118165
0.361557
0.577966
0.210026
-0.126518
0.113662
0.546875
0.495155
0.0635864
-0.047587
0.338491
0.611294
0.349159
-0.0208245
0.0907186
0.506954
0.572149
0.187985
-0.035367
0.255197
0.601361
0.457758
0.0516972
0.0240824
0.418903
0.613541
0.300179
-0.0275932
0.14703
0.548182
0.542317
0.138561
-0.0253722
0.310092
0.615825
0.408561
0.0152036
0.0575644
0.468438
0.596804
0.239565
-0.0355036
0.20789
0.580973
0.491562
0.0879864
0.0202454
0.400392
0.617049
0.314262
-0.026249
0.139913
0.542599
0.546533
0.170937
0.0368586
0.363335
0.62721
0.419069
0.100378
0.0218113
0.50253
0.299542
-0.28265
-0.316872
0.246403
0.494957
0.0227365
-0.413385
-0.114155
0.438725
0.356017
-0.232471
-0.387476
0.138184