# vtk DataFile Version 3.0
PFC simulation results
ASCII
DATASET STRUCTURED_POINTS
DIMENSIONS 128 128 1
ORIGIN 0 0 0
SPACING 1 1 1
POINT_DATA 16384
SCALARS psi double
LOOKUP_TABLE default
0.523662
0.395222
0.0681578
-0.29977
-0.526765
-0.505544
-0.247676
0.118893
0.404665
0.462765
0.260133
-0.108238
-0.456642
-0.610665
-0.49712
-0.168708
0.212528
0.45327
0.435175
0.16471
-0.228255
-0.547304
-0.638932
-0.462223
-0.0985636
0.274812
0.474373
0.406992
0.103151
-0.292636
-0.587311
-0.645073
-0.442185
-0.0702503
0.293258
0.475137
0.394351
0.0874223
-0.30309
-0.592321
-0.652371
-0.460676
-0.10115
0.260902
0.45968
0.411948
0.14068
-0.23412
-0.543845
-0.658932
-0.539421
-0.236062
0.123259
0.386465
0.453889
0.30953
0.0139817
-0.314118
-0.547725
-0.608697
-0.483895
-0.218154
0.0928889
0.334887
0.424854
0.334887
0.0928889
-0.218154
-0.483895
-0.608697
-0.547725
-0.314118
0.0139817
0.30953
0.453889
0.386465
0.123259
-0.236062
-0.539421
-0.658932
-0.543845
-0.23412
0.14068
0.411948
0.45968
0.260902
-0.10115
-0.460676
-0.652371
-0.592321
-0.30309
0.0874223
0.394351
0.475137
0.293258
-0.0702503
-0.442185
-0.645073
-0.587311
-0.292636
0.103151
0.406992
0.474373
0.274812
-0.0985636
-0.462223
-0.638932
-0.547304
-0.228255
0.16471
0.435175
0.45327
0.212528
-0.168708
-0.49712
-0.610665
-0.456642
-0.108238
0.260133
0.462765
0.404665
0.118893
-0.247676
-0.505544
-0.526765
-0.29977
0.0681578
0.395222
0.492783
0.351686
-0.00621376
-0.40553
-0.648464
-0.621839
-0.338523
0.0655214
0.38613
0.464525
0.264662
-0.114795
-0.480256
-0.648556
-0.540318
-0.205354
0.192296
0.452882
0.452065
0.192304
-0.19972
-0.527492
-0.6326
-0.467496
-0.108116
0.270704
0.484091
0.435237
0.148549
-0.239396
-0.539354
-0.611639
-0.425047
-0.063988
0.299388
0.493565
0.434925
0.152228
-0.223578
-0.514612
-0.589844
-0.418525
-0.0761573
0.279776
0.488561
0.466861
0.230248
-0.115799
-0.415024
-0.53852
-0.439352
-0.16078
0.178119
0.435896
0.520787
0.417207
0.1752
-0.105283
-0.311281
-0.366763
-0.256072
-0.0222494
0.246445
0.451951
0.527602
0.451951
0.246445
-0.0222494
-0.256072
-0.366763
-0.311281
-0.105283
0.1752
0.417207
0.520787
0.435896
0.178119
-0.16078
-0.439352
-0.53852
-0.415024
-0.115799
0.230248
0.466861
0.488561
0.279776
-0.0761573
-0.418525
-0.589844
-0.514612
-0.223578
0.152228
0.434925
0.493565
0.299388
-0.063988
-0.425047
-0.611639
-0.539354
-0.239396
0.148549
0.435237
0.484091
0.270704
-0.108116
-0.467496
-0.6326
-0.527492
-0.19972
0.192304
0.452065
0.452882
0.192296
-0.205354
-0.540318
-0.648556
-0.480256
-0.114795
0.264662
0.464525
0.38613
0.0655214
-0.338523
-0.621839
-0.648464
-0.40553
-0.00621376
0.351686
0.53574
0.407878
0.0825009
-0.282417
-0.50445
-0.476312
-0.211027
0.162782
0.459816
0.541068
0.375553
0.0461599
-0.280203
-0.437375
-0.348079
-0.0559522
0.292896
0.526319
0.539191
0.330836
0.00162517
-0.284557
-0.385521
-0.252873
0.0487013
0.3699
0.557419
0.531253
0.306839
-0.0113858
-0.269054
-0.341638
-0.195332
0.0996891
0.400599
0.569082
0.53744
0.323526
0.0239139
-0.220367
-0.294625
-0.165651
0.105658
0.391814
0.567135
0.567327
0.401023
0.141957
-0.0934172
-0.199404
-0.131736
0.0761777
0.330123
0.525001
0.597799
0.540625
0.387429
0.202965
0.0638253
0.0262141
0.102431
0.25846
0.431031
0.558498
0.604453
0.558498
0.431031
0.25846
0.102431
0.0262141
0.0638253
0.202965
0.387429
0.540625
0.597799
0.525001
0.330123
0.0761777
-0.131736
-0.199404
-0.0934172
0.141957
0.401023
0.567327
0.567135
0.391814
0.105658
-0.165651
-0.294625
-0.220367
0.0239139
0.323526
0.53744
0.569082
0.400599
0.0996891
-0.195332
-0.341638
-0.269054
-0.0113858
0.306839
0.531253
0.557419
0.3699
0.0487013
-0.252873
-0.385521
-0.284557
0.00162517
0.330836
0.539191
0.526319
0.292896
-0.0559522
-0.348079
-0.437375
-0.280203
0.0461599
0.375553
0.541068
0.459816
0.162782
-0.211027
-0.476312
-0.50445
-0.282417
0.0825009
0.407878
0.61048
0.517394
0.278712
0.00743324
-0.159093
-0.135345
0.067088
0.34594
0.56489
0.628432
0.517015
0.286499
0.051656
-0.0660214
-0.00596321
0.198996
0.442082
0.605532
0.621181
0.488455
0.270119
0.0734813
-0.000907574
0.0844735
0.283889
0.49535
0.620549
0.610592
0.474117
0.272703
0.103018
0.0502139
0.140351
0.326089
0.514672
0.622101
0.609622
0.487002
0.307846
0.155543
0.104521
0.178959
0.339368
0.506587
0.609144
0.614749
0.530004
0.392849
0.264399
0.204446
0.239217
0.346451
0.470188
0.557529
0.586773
0.564746
0.510236
0.446847
0.40101
0.392846
0.423865
0.474968
0.520433
0.54631
0.55382
0.54631
0.520433
0.474968
0.423865
0.392846
0.40101
0.446847
0.510236
0.564746
0.586773
0.557529
0.470188
0.346451
0.239217
0.204446
0.264399
0.392849
0.530004
0.614749
0.609144
0.506587
0.339368
0.178959
0.104521
0.155543
0.307846
0.487002
0.609622
0.622101
0.514672
0.326089
0.140351
0.0502139
0.103018
0.272703
0.474117
0.610592
0.620549
0.49535
0.283889
0.0844735
-0.000907574
0.0734813
0.270119
0.488455
0.621181
0.605532
0.442082
0.198996
-0.00596321
-0.0660214
0.051656
0.286499
0.517015
0.628432
0.56489
0.34594
0.067088
-0.135345
-0.159093
0.00743324
0.278712
0.517394
0.619397
0.573746
0.455144
0.317661
0.232493
0.246753
0.352221
0.491324
0.595971
0.625328
0.574694
0.46968
0.361138
0.306044
0.333476
0.424597
0.52701
0.591433
0.596009
0.544777
0.461366
0.385744
0.358245
0.393365
0.468238
0.540083
0.576659
0.569228
0.525149
0.462685
0.410762
0.397629
0.430589
0.488188
0.53699
0.556794
0.547116
0.516279
0.475956
0.443701
0.437556
0.46114
0.496838
0.520101
0.521513
0.510301
0.498954
0.49278
0.493266
0.50193
0.51494
0.517627
0.494455
0.449409
0.410199
0.406644
0.446347
0.510738
0.570441
0.601618
0.589929
0.530996
0.439583
0.354346
0.319448
0.354346
0.439583
0.530996
0.589929
0.601618
0.570441
0.510738
0.446347
0.406644
0.410199
0.449409
0.494455
0.517627
0.51494
0.50193
0.493266
0.49278
0.498954
0.510301
0.521513
0.520101
0.496838
0.46114
0.437556
0.443701
0.475956
0.516279
0.547116
0.556794
0.53699
0.488188
0.430589
0.397629
0.410762
0.462685
0.525149
0.569228
0.576659
0.540083
0.468238
0.393365
0.358245
0.385744
0.461366
0.544777
0.596009
0.591433
0.52701
0.424597
0.333476
0.306044
0.361138
0.46968
0.574694
0.625328
0.595971
0.491324
0.352221
0.246753
0.232493
0.317661
0.455144
0.573746
0.46965
0.476539
0.491007
0.502874
0.509644
0.513052
0.508784
0.49058
0.464714
0.450046
0.4598
0.488778
0.520422
0.540597
0.54029
0.51298
0.462469
0.411929
0.392434
0.418026
0.474737
0.532953
0.566604
0.560513
0.510909
0.433054
0.364221
0.343669
0.384228
0.463783
0.542136
0.584745
0.573126
0.506134
0.406573
0.321074
0.2958
0.34539
0.443955
0.543118
0.599437
0.588738
0.508179
0.382731
0.266562
0.218163
0.264103
0.38295
0.5187
0.611714
0.622273
0.536423
0.372675
0.190497
0.0712169
0.0728658
0.196787
0.386194
0.556015
0.635584
0.591472
0.431135
0.208845
0.0166926
-0.0588482
0.0166926
0.208845
0.431135
0.591472
0.635584
0.556015
0.386194
0.196787
0.0728658
0.0712169
0.190497
0.372675
0.536423
0.622273
0.611714
0.5187
0.38295
0.264103
0.218163
0.266562
0.382731
0.508179
0.588738
0.599437
0.543118
0.443955
0.34539
0.2958
0.321074
0.406573
0.506134
0.573126
0.584745
0.542136
0.463783
0.384228
0.343669
0.364221
0.433054
0.510909
0.560513
0.566604
0.532953
0.474737
0.418026
0.392434
0.411929
0.462469
0.51298
0.54029
0.540597
0.520422
0.488778
0.4598
0.450046
0.464714
0.49058
0.508784
0.513052
0.509644
0.502874
0.491007
0.476539
0.141267
0.200503
0.347239
0.507123
0.60548
0.600373
0.490543
0.317987
0.161579
0.100427
0.167119
0.327592
0.499912
0.600403
0.581752
0.445724
0.246868
0.0788969
0.0272864
0.119462
0.309071
0.501201
0.604527
0.571667
0.411228
0.18973
0.0119668
-0.0332613
0.0769028
0.287741
0.495935
0.605002
0.566734
0.392176
0.152764
-0.0406541
-0.0944974
0.01695
0.239926
0.468138
0.598069
0.573673
0.398647
0.139194
-0.0911174
-0.186134
-0.10268
0.121274
0.3835
0.567248
0.594687
0.446912
0.169549
-0.12825
-0.317876
-0.318298
-0.130081
0.164741
0.435232
0.566101
0.503524
0.26448
-0.0608438
-0.334704
-0.440332
-0.334704
-0.0608438
0.26448
0.503524
0.566101
0.435232
0.164741
-0.130081
-0.318298
-0.317876
-0.12825
0.169549
0.446912
0.594687
0.567248
0.3835
0.121274
-0.10268
-0.186134
-0.0911174
0.139194
0.398647
0.573673
0.598069
0.468138
0.239926
0.01695
-0.0944974
-0.0406541
0.152764
0.392176
0.566734
0.605002
0.495935
0.287741
0.0769028
-0.0332613
0.0119668
0.18973
0.411228
0.571667
0.604527
0.501201
0.309071
0.119462
0.0272864
0.0788969
0.246868
0.445724
0.581752
0.600403
0.499912
0.327592
0.167119
0.100427
0.161579
0.317987
0.490543
0.600373
0.60548
0.507123
0.347239
0.200503
-0.268649
-0.165464
0.0943359
0.383505
0.563882
0.554585
0.35648
0.0536946
-0.211649
-0.31142
-0.198326
0.0731418
0.369018
0.544993
0.518503
0.296346
-0.0242755
-0.289986
-0.372276
-0.232428
0.0632407
0.37043
0.541253
0.497018
0.253169
-0.0823424
-0.349523
-0.421698
-0.266415
0.0440463
0.36108
0.535215
0.488547
0.237783
-0.10795
-0.387182
-0.471427
-0.324701
-0.0130229
0.319127
0.518877
0.499311
0.264843
-0.0882428
-0.401862
-0.536876
-0.438106
-0.147649
0.207199
0.467835
0.523439
0.348073
0.00580513
-0.36001
-0.591549
-0.596245
-0.37391
-0.0157363
0.321572
0.492106
0.426677
0.148274
-0.229917
-0.54404
-0.663856
-0.54404
-0.229917
0.148274
0.426677
0.492106
0.321572
-0.0157363
-0.37391
-0.596245
-0.591549
-0.36001
0.00580513
0.348073
0.523439
0.467835
0.207199
-0.147649
-0.438106
-0.536876
-0.401862
-0.0882428
0.264843
0.499311
0.518877
0.319127
-0.0130229
-0.324701
-0.471427
-0.387182
-0.10795
0.237783
0.488547
0.535215
0.36108
0.0440463
-0.266415
-0.421698
-0.349523
-0.0823424
0.253169
0.497018
0.541253
0.37043
0.0632407
-0.232428
-0.372276
-0.289986
-0.0242755
0.296346
0.518503
0.544993
0.369018
0.0731418
-0.198326
-0.31142
-0.211649
0.0536946
0.35648
0.554585
0.563882
0.383505
0.0943359
-0.165464
-0.586279
-0.456435
-0.125298
0.249553
0.487065
0.478193
0.225121
-0.15839
-0.488705
-0.61049
-0.469924
-0.130243
0.246157
0.475675
0.450979
0.181136
-0.209732
-0.532279
-0.635096
-0.473123
-0.118837
0.258881
0.477273
0.435786
0.151754
-0.243897
-0.560932
-0.653383
-0.482139
-0.122613
0.25659
0.475452
0.436005
0.15507
-0.240311
-0.563875
-0.670309
-0.516338
-0.167557
0.217886
0.46196
0.459065
0.210889
-0.175181
-0.523353
-0.680844
-0.585602
-0.276387
0.114661
0.413407
0.494384
0.32754
-0.0187289
-0.393622
-0.633078
-0.641327
-0.416462
-0.0492473
0.300902
0.483916
0.428841
0.159145
-0.211995
-0.521657
-0.640013
-0.521657
-0.211995
0.159145
0.428841
0.483916
0.300902
-0.0492473
-0.416462
-0.641327
-0.633078
-0.393622
-0.0187289
0.32754
0.494384
0.413407
0.114661
-0.276387
-0.585602
-0.680844
-0.523353
-0.175181
0.210889
0.459065
0.46196
0.217886
-0.167557
-0.516338
-0.670309
-0.563875
-0.240311
0.15507
0.436005
0.475452
0.25659
-0.122613
-0.482139
-0.653383
-0.560932
-0.243897
0.151754
0.435786
0.477273
0.258881
-0.118837
-0.473123
-0.635096
-0.532279
-0.209732
0.181136
0.450979
0.475675
0.246157
-0.130243
-0.469924
-0.61049
-0.488705
-0.15839
0.225121
0.478193
0.487065
0.249553
-0.125298
-0.456435
-0.671642
-0.535181
-0.185781
0.212052
0.466399
0.461077
0.198685
-0.20017
-0.5428
-0.668367
-0.521813
-0.167612
0.227029
0.471691
0.455032
0.18573
-0.210427
-0.540803
-0.650223
-0.490703
-0.133113
0.253103
0.482923
0.453682
0.180187
-0.21049
-0.530257
-0.631031
-0.469448
-0.116774
0.261908
0.488677
0.46541
0.204907
-0.174381
-0.493695
-0.607944
-0.469189
-0.137269
0.236872
0.482462
0.497543
0.280663
-0.0727152
-0.40134
-0.558413
-0.479288
-0.19747
0.164445
0.446778
0.536175
0.405624
0.11309
-0.212456
-0.425271
-0.434995
-0.238547
0.0806277
0.383176
0.543966
0.506139
0.2889
-0.0172723
-0.27784
-0.378801
-0.27784
-0.0172723
0.2889
0.506139
0.543966
0.383176
0.0806277
-0.238547
-0.434995
-0.425271
-0.212456
0.11309
0.405624
0.536175
0.446778
0.164445
-0.19747
-0.479288
-0.558413
-0.40134
-0.0727152
0.280663
0.497543
0.482462
0.236872
-0.137269
-0.469189
-0.607944
-0.493695
-0.174381
0.204907
0.46541
0.488677
0.261908
-0.116774
-0.469448
-0.631031
-0.530257
-0.21049
0.180187
0.453682
0.482923
0.253103
-0.133113
-0.490703
-0.650223
-0.540803
-0.210427
0.18573
0.455032
0.471691
0.227029
-0.167612
-0.521813
-0.668367
-0.5428
-0.20017
0.198685
0.461077
0.466399
0.212052
-0.185781
-0.535181
-0.488962
-0.365793
-0.0529286
0.29995
0.525107
0.523815
0.298488
-0.0487992
-0.351001
-0.462632
-0.331859
-0.0189758
0.326285
0.541194
0.53366
0.310495
-0.0259325
-0.313185
-0.412563
-0.277841
0.0275969
0.356604
0.555353
0.540593
0.322558
0.000378555
-0.272025
-0.364389
-0.234223
0.0571738
0.370636
0.562463
0.555172
0.356594
0.0551213
-0.208473
-0.310319
-0.204473
0.0594924
0.357871
0.557429
0.581336
0.427473
0.163346
-0.0917606
-0.220422
-0.165628
0.0460916
0.317161
0.52891
0.602433
0.520865
0.323478
0.0970871
-0.0547443
-0.0628072
0.0750489
0.294541
0.498043
0.605906
0.585432
0.449488
0.252925
0.0813487
0.0136723
0.0813487
0.252925
0.449488
0.585432
0.605906
0.498043
0.294541
0.0750489
-0.0628072
-0.0547443
0.0970871
0.323478
0.520865
0.602433
0.52891
0.317161
0.0460916
-0.165628
-0.220422
-0.0917606
0.163346
0.427473
0.581336
0.557429
0.357871
0.0594924
-0.204473
-0.310319
-0.208473
0.0551213
0.356594
0.555172
0.562463
0.370636
0.0571738
-0.234223
-0.364389
-0.272025
0.000378555
0.322558
0.540593
0.555353
0.356604
0.0275969
-0.277841
-0.412563
-0.313185
-0.0259325
0.310495
0.53366
0.541194
0.326285
-0.0189758
-0.331859
-0.462632
-0.351001
-0.0487992
0.298488
0.523815
0.525107
0.29995
-0.0529286
-0.365793
-0.117312
-0.027485
0.197316
0.446084
0.603139
0.604025
0.450872
0.210667
-0.002455
-0.0821868
0.0113228
0.231123
0.468774
0.615472
0.613553
0.468075
0.243564
0.0469182
-0.0236631
0.0667653
0.271526
0.488753
0.619873
0.614914
0.480383
0.275429
0.0966319
0.032567
0.114524
0.29971
0.49626
0.616665
0.61724
0.503009
0.323318
0.160759
0.0943689
0.155849
0.312172
0.485707
0.600635
0.618185
0.539473
0.399078
0.25925
0.186196
0.21405
0.325228
0.462258
0.564478
0.599527
0.565769
0.482
0.384319
0.318257
0.316039
0.375961
0.463958
0.537999
0.573509
0.566756
0.523998
0.45953
0.400003
0.375634
0.400003
0.45953
0.523998
0.566756
0.573509
0.537999
0.463958
0.375961
0.316039
0.318257
0.384319
0.482
0.565769
0.599527
0.564478
0.462258
0.325228
0.21405
0.186196
0.25925
0.399078
0.539473
0.618185
0.600635
0.485707
0.312172
0.155849
0.0943689
0.160759
0.323318
0.503009
0.61724
0.616665
0.49626
0.29971
0.114524
0.032567
0.0966319
0.275429
0.480383
0.614914
0.619873
0.488753
0.271526
0.0667653
-0.0236631
0.0469182
0.243564
0.468075
0.613553
0.615472
0.468774
0.231123
0.0113228
-0.0821868
-0.002455
0.210667
0.450872
0.604025
0.603139
0.446084
0.197316
-0.027485
0.277901
0.319594
0.421218
0.529169
0.594693
0.594981
0.532141
0.431355
0.339576
0.305413
0.347501
0.44099
0.535871
0.590438
0.588373
0.534232
0.449971
0.374565
0.348019
0.384436
0.460829
0.534892
0.574724
0.570905
0.528981
0.465354
0.408836
0.389784
0.418361
0.475074
0.526698
0.551776
0.548114
0.522051
0.482965
0.447323
0.434694
0.451967
0.484552
0.509176
0.515609
0.510879
0.504439
0.498484
0.49352
0.493714
0.500074
0.50264
0.488895
0.461916
0.4425
0.449396
0.481637
0.521902
0.552168
0.561101
0.540653
0.489029
0.42297
0.37712
0.380678
0.433653
0.507041
0.565277
0.586668
0.565277
0.507041
0.433653
0.380678
0.37712
0.42297
0.489029
0.540653
0.561101
0.552168
0.521902
0.481637
0.449396
0.4425
0.461916
0.488895
0.50264
0.500074
0.493714
0.49352
0.498484
0.504439
0.510879
0.515609
0.509176
0.484552
0.451967
0.434694
0.447323
0.482965
0.522051
0.548114
0.551776
0.526698
0.475074
0.418361
0.389784
0.408836
0.465354
0.528981
0.570905
0.574724
0.534892
0.460829
0.384436
0.348019
0.374565
0.449971
0.534232
0.588373
0.590438
0.535871
0.44099
0.347501
0.305413
0.339576
0.431355
0.532141
0.594981
0.594693
0.529169
0.421218
0.319594
0.540953
0.529566
0.496239
0.450277
0.414615
0.411999
0.445075
0.494242
0.5349
0.552436
0.540826
0.499021
0.439135
0.390585
0.382902
0.422046
0.485987
0.542567
0.568651
0.553481
0.497114
0.417966
0.354233
0.342555
0.391045
0.473639
0.549343
0.585926
0.567889
0.496261
0.395377
0.312467
0.292821
0.348836
0.451677
0.550945
0.603416
0.586718
0.500508
0.372839
0.260258
0.220922
0.277653
0.403045
0.536505
0.618695
0.614609
0.517952
0.357081
0.197948
0.117308
0.157559
0.300551
0.477145
0.606157
0.632521
0.540244
0.356628
0.155204
0.0295395
0.041606
0.186186
0.392871
0.565083
0.630639
0.565083
0.392871
0.186186
0.041606
0.0295395
0.155204
0.356628
0.540244
0.632521
0.606157
0.477145
0.300551
0.157559
0.117308
0.197948
0.357081
0.517952
0.614609
0.618695
0.536505
0.403045
0.277653
0.220922
0.260258
0.372839
0.500508
0.586718
0.603416
0.550945
0.451677
0.348836
0.292821
0.312467
0.395377
0.496261
0.567889
0.585926
0.549343
0.473639
0.391045
0.342555
0.354233
0.417966
0.497114
0.553481
0.568651
0.542567
0.485987
0.422046
0.382902
0.390585
0.439135
0.499021
0.540826
0.552436
0.5349
0.494242
0.445075
0.411999
0.414615
0.450277
0.496239
0.529566
0.621589
0.559397
0.39613
0.200855
0.0662688
0.0597455
0.184923
0.379318
0.549156
0.61927
0.559866
0.39076
0.182108
0.032244
0.0157589
0.141408
0.346928
0.532656
0.614756
0.557428
0.37939
0.154545
-0.0115315
-0.0369932
0.0911948
0.310396
0.51495
0.612301
0.560165
0.374703
0.131639
-0.0566543
-0.0991046
0.0251478
0.256718
0.485341
0.607728
0.571136
0.384219
0.119764
-0.103789
-0.181135
-0.0756417
0.16397
0.425454
0.590318
0.587757
0.411839
0.126251
-0.146284
-0.280799
-0.215822
0.0194631
0.315852
0.536488
0.585092
0.437153
0.145734
-0.165026
-0.353315
-0.334269
-0.116377
0.200677
0.469809
0.573342
0.469809
0.200677
-0.116377
-0.334269
-0.353315
-0.165026
0.145734
0.437153
0.585092
0.536488
0.315852
0.0194631
-0.215822
-0.280799
-0.146284
0.126251
0.411839
0.587757
0.590318
0.425454
0.16397
-0.0756417
-0.181135
-0.103789
0.119764
0.384219
0.571136
0.607728
0.485341
0.256718
0.0251478
-0.0991046
-0.0566543
0.131639
0.374703
0.560165
0.612301
0.51495
0.310396
0.0911948
-0.0369932
-0.0115315
0.154545
0.37939
0.557428
0.614756
0.532656
0.346928
0.141408
0.0157589
0.032244
0.182108
0.39076
0.559866
0.61927
0.549156
0.379318
0.184923
0.0597455
0.0662688
0.200855
0.39613
0.559397
0.57769
0.473034
0.201749
-0.115517
-0.328984
-0.338824
-0.140576
0.172885
0.452045
0.569377
0.473892
0.202573
-0.12512
-0.354992
-0.379964
-0.18875
0.129845
0.423811
0.557329
0.471632
0.19962
-0.139
-0.385118
-0.424808
-0.240489
0.0834905
0.393817
0.54708
0.476054
0.207188
-0.142758
-0.411015
-0.474974
-0.306963
0.0180365
0.348861
0.533393
0.491311
0.236214
-0.124677
-0.426768
-0.533946
-0.400811
-0.0846936
0.271041
0.503388
0.511337
0.287698
-0.0774334
-0.420973
-0.588764
-0.510288
-0.21842
0.157345
0.443527
0.513176
0.334982
-0.019443
-0.391994
-0.613477
-0.589777
-0.330682
0.0513445
0.379977
0.507311
0.379977
0.0513445
-0.330682
-0.589777
-0.613477
-0.391994
-0.019443
0.334982
0.513176
0.443527
0.157345
-0.21842
-0.510288
-0.588764
-0.420973
-0.0774334
0.287698
0.511337
0.503388
0.271041
-0.0846936
-0.400811
-0.533946
-0.426768
-0.124677
0.236214
0.491311
0.533393
0.348861
0.0180365
-0.306963
-0.474974
-0.411015
-0.142758
0.207188
0.476054
0.54708
0.393817
0.0834905
-0.240489
-0.424808
-0.385118
-0.139
0.19962
0.471632
0.557329
0.423811
0.129845
-0.18875
-0.379964
-0.354992
-0.12512
0.202573
0.473892
0.569377
0.452045
0.172885
-0.140576
-0.338824
-0.328984
-0.115517
0.201749
0.473034
0.513933
0.383624
0.0481993
-0.338835
-0.595314
-0.606862
-0.368676
0.0132893
0.35872
0.507194
0.393692
0.0658489
-0.326795
-0.599183
-0.629625
-0.405364
-0.025215
0.331932
0.499207
0.402972
0.0837103
-0.313171
-0.600603
-0.65031
-0.441733
-0.0655587
0.302884
0.491776
0.418386
0.113395
-0.28589
-0.592551
-0.670425
-0.487746
-0.122075
0.259461
0.480393
0.444934
0.167628
-0.229646
-0.563248
-0.685386
-0.54663
-0.204123
0.189866
0.454628
0.475719
0.244742
-0.139252
-0.500656
-0.677351
-0.596621
-0.291129
0.10615
0.41281
0.49389
0.316639
-0.0432022
-0.421598
-0.645538
-0.620154
-0.355618
0.0342564
0.36993
0.500065
0.36993
0.0342564
-0.355618
-0.620154
-0.645538
-0.421598
-0.0432022
0.316639
0.49389
0.41281
0.10615
-0.291129
-0.596621
-0.677351
-0.500656
-0.139252
0.244742
0.475719
0.454628
0.189866
-0.204123
-0.54663
-0.685386
-0.563248
-0.229646
0.167628
0.444934
0.480393
0.259461
-0.122075
-0.487746
-0.670425
-0.592551
-0.28589
0.113395
0.418386
0.491776
0.302884
-0.0655587
-0.441733
-0.65031
-0.600603
-0.313171
0.0837103
0.402972
0.499207
0.331932
-0.025215
-0.405364
-0.629625
-0.599183
-0.326795
0.0658489
0.393692
0.507194
0.35872
0.0132893
-0.368676
-0.606862
-0.595314
-0.338835
0.0481993
0.383624
0.511006
0.378781
0.0385368
-0.353755
-0.613431
-0.624992
-0.383561
0.00409639
0.355777
0.509345
0.399304
0.0733111
-0.319145
-0.592618
-0.624536
-0.401342
-0.0212493
0.337635
0.509467
0.421109
0.111381
-0.278314
-0.563972
-0.617096
-0.415295
-0.0468206
0.316899
0.508325
0.446668
0.15974
-0.223087
-0.52235
-0.603445
-0.43238
-0.0829581
0.284729
0.502817
0.480499
0.229862
-0.13827
-0.45339
-0.573353
-0.447747
-0.130052
0.236892
0.486825
0.516125
0.317049
-0.0234836
-0.349234
-0.510865
-0.438412
-0.162782
0.193005
0.467184
0.54399
0.396385
0.0883469
-0.240432
-0.437102
-0.413707
-0.18025
0.158503
0.446409
0.557272
0.446409
0.158503
-0.18025
-0.413707
-0.437102
-0.240432
0.0883469
0.396385
0.54399
0.467184
0.193005
-0.162782
-0.438412
-0.510865
-0.349234
-0.0234836
0.317049
0.516125
0.486825
0.236892
-0.130052
-0.447747
-0.573353
-0.45339
-0.13827
0.229862
0.480499
0.502817
0.284729
-0.0829581
-0.43238
-0.603445
-0.52235
-0.223087
0.15974
0.446668
0.508325
0.316899
-0.0468206
-0.415295
-0.617096
-0.563972
-0.278314
0.111381
0.421109
0.509467
0.337635
-0.0212493
-0.401342
-0.624536
-0.592618
-0.319145
0.0733111
0.399304
0.509345
0.355777
0.00409639
-0.383561
-0.624992
-0.613431
-0.353755
0.0385368
0.378781
0.574169
0.464218
0.179438
-0.152978
-0.37601
-0.385955
-0.17828
0.150883
0.446317
0.576113
0.488459
0.220948
-0.106627
-0.339133
-0.367664
-0.179255
0.138682
0.436116
0.580046
0.513457
0.265864
-0.0526584
-0.291928
-0.339616
-0.174166
0.127435
0.423056
0.580722
0.538653
0.317014
0.0130713
-0.231411
-0.3019
-0.166624
0.111453
0.402044
0.576103
0.566461
0.381541
0.101371
-0.145376
-0.243247
-0.147902
0.0959244
0.374378
0.56379
0.591223
0.452075
0.206657
-0.033665
-0.155399
-0.101745
0.101531
0.358663
0.553945
0.610304
0.511453
0.299849
0.0693855
-0.0708338
-0.0535093
0.112896
0.348714
0.544988
0.619715
0.544988
0.348714
0.112896
-0.0535093
-0.0708338
0.0693855
0.299849
0.511453
0.610304
0.553945
0.358663
0.101531
-0.101745
-0.155399
-0.033665
0.206657
0.452075
0.591223
0.56379
0.374378
0.0959244
-0.147902
-0.243247
-0.145376
0.101371
0.381541
0.566461
0.576103
0.402044
0.111453
-0.166624
-0.3019
-0.231411
0.0130713
0.317014
0.538653
0.580722
0.423056
0.127435
-0.174166
-0.339616
-0.291928
-0.0526584
0.265864
0.513457
0.580046
0.436116
0.138682
-0.179255
-0.367664
-0.339133
-0.106627
0.220948
0.488459
0.576113
0.446317
0.150883
-0.17828
-0.385955
-0.37601
-0.152978
0.179438
0.464218
0.629538
0.559701
0.376834
0.159149
0.0100854
0.00346811
0.142508
0.358218
0.54791
0.630845
0.577232
0.409411
0.199518
0.0470919
0.0276724
0.15055
0.354025
0.540497
0.630374
0.591919
0.442263
0.245097
0.0929958
0.0611119
0.164701
0.350973
0.529844
0.624812
0.602983
0.475888
0.296887
0.148666
0.103923
0.184049
0.347285
0.513871
0.61244
0.609804
0.511607
0.358739
0.220313
0.163744
0.2163
0.349239
0.496074
0.592981
0.607809
0.541152
0.421194
0.301042
0.239372
0.267004
0.36755
0.48874
0.576225
0.600469
0.558313
0.467042
0.364958
0.301583
0.310127
0.385122
0.486482
0.566814
0.596431
0.566814
0.486482
0.385122
0.310127
0.301583
0.364958
0.467042
0.558313
0.600469
0.576225
0.48874
0.36755
0.267004
0.239372
0.301042
0.421194
0.541152
0.607809
0.592981
0.496074
0.349239
0.2163
0.163744
0.220313
0.358739
0.511607
0.609804
0.61244
0.513871
0.347285
0.184049
0.103923
0.148666
0.296887
0.475888
0.602983
0.624812
0.529844
0.350973
0.164701
0.0611119
0.0929958
0.245097
0.442263
0.591919
0.630374
0.540497
0.354025
0.15055
0.0276724
0.0470919
0.199518
0.409411
0.577232
0.630845
0.54791
0.358218
0.142508
0.00346811
0.0100854
0.159149
0.376834
0.559701
0.570566
0.550048
0.493698
0.42203
0.370395
0.368556
0.417399
0.488079
0.544935
0.567608
0.552238
0.504194
0.440752
0.39257
0.38725
0.427339
0.487729
0.536566
0.556695
0.546399
0.510182
0.459988
0.419315
0.411815
0.441406
0.487796
0.524616
0.539461
0.533821
0.511704
0.478952
0.449955
0.442331
0.460417
0.489166
0.509029
0.514142
0.511146
0.504946
0.494981
0.484138
0.480934
0.488251
0.49617
0.493078
0.481497
0.475517
0.483238
0.498813
0.512403
0.520418
0.521532
0.509784
0.481834
0.449611
0.435532
0.451695
0.488291
0.524256
0.544731
0.544394
0.521019
0.478221
0.43419
0.415243
0.43419
0.478221
0.521019
0.544394
0.544731
0.524256
0.488291
0.451695
0.435532
0.449611
0.481834
0.509784
0.521532
0.520418
0.512403
0.498813
0.483238
0.475517
0.481497
0.493078
0.49617
0.488251
0.480934
0.484138
0.494981
0.504946
0.511146
0.514142
0.509029
0.489166
0.460417
0.442331
0.449955
0.478952
0.511704
0.533821
0.539461
0.524616
0.487796
0.441406
0.411815
0.419315
0.459988
0.510182
0.546399
0.556695
0.536566
0.487729
0.427339
0.38725
0.39257
0.440752
0.504194
0.552238
0.567608
0.544935
0.488079
0.417399
0.368556
0.370395
0.42203
0.493698
0.550048
0.328163
0.359939
0.437229
0.519542
0.571158
0.575092
0.529484
0.447618
0.363439
0.320397
0.343261
0.419782
0.509814
0.572461
0.584595
0.540695
0.452811
0.356319
0.299724
0.314793
0.39404
0.496156
0.573533
0.595768
0.553403
0.457686
0.346117
0.273118
0.278496
0.360491
0.47698
0.572812
0.608597
0.569405
0.464802
0.334263
0.239222
0.229856
0.312628
0.445837
0.565685
0.620993
0.588847
0.475798
0.322946
0.199653
0.168785
0.247827
0.39744
0.544905
0.624821
0.603925
0.485065
0.311333
0.160249
0.107057
0.179874
0.342266
0.514168
0.617539
0.610113
0.492373
0.309333
0.143466
0.0768468
0.143466
0.309333
0.492373
0.610113
0.617539
0.514168
0.342266
0.179874
0.107057
0.160249
0.311333
0.485065
0.603925
0.624821
0.544905
0.39744
0.247827
0.168785
0.199653
0.322946
0.475798
0.588847
0.620993
0.565685
0.445837
0.312628
0.229856
0.239222
0.334263
0.464802
0.569405
0.608597
0.572812
0.47698
0.360491
0.278496
0.273118
0.346117
0.457686
0.553403
0.595768
0.573533
0.496156
0.39404
0.314793
0.299724
0.356319
0.452811
0.540695
0.584595
0.572461
0.509814
0.419782
0.343261
0.320397
0.363439
0.447618
0.529484
0.575092
0.571158
0.519542
0.437229
0.359939
-0.0627401
0.0176813
0.219908
0.446676
0.595319
0.605621
0.472963
0.248966
0.0328838
-0.0720923
-0.0149549
0.176825
0.410703
0.57861
0.609953
0.490989
0.26676
0.03513
-0.094059
-0.0583468
0.125391
0.368824
0.558323
0.612557
0.508441
0.284346
0.0363905
-0.11902
-0.107362
0.0661892
0.31895
0.532369
0.613317
0.527613
0.3053
0.0393763
-0.147061
-0.165471
-0.00672527
0.254453
0.495152
0.608422
0.546384
0.32903
0.0450249
-0.175899
-0.229594
-0.0905786
0.176288
0.444601
0.592306
0.556185
0.346343
0.0478999
-0.203156
-0.288544
-0.168334
0.101584
0.392732
0.570469
0.558638
0.360003
0.0571866
-0.210414
-0.315968
-0.210414
0.0571866
0.360003
0.558638
0.570469
0.392732
0.101584
-0.168334
-0.288544
-0.203156
0.0478999
0.346343
0.556185
0.592306
0.444601
0.176288
-0.0905786
-0.229594
-0.175899
0.0450249
0.32903
0.546384
0.608422
0.495152
0.254453
-0.00672527
-0.165471
-0.147061
0.0393763
0.3053
0.527613
0.613317
0.532369
0.31895
0.0661892
-0.107362
-0.11902
0.0363905
0.284346
0.508441
0.612557
0.558323
0.368824
0.125391
-0.0583468
-0.094059
0.03513
0.26676
0.490989
0.609953
0.57861
0.410703
0.176825
-0.0149549
-0.0720923
0.0328838
0.248966
0.472963
0.605621
0.595319
0.446676
0.219908
0.0176813
-0.452731
-0.337002
-0.041328
0.297337
0.522983
0.53928
0.339128
0.00590759
-0.308699
-0.458796
-0.377476
-0.100759
0.243767
0.495674
0.544727
0.369753
0.0425832
-0.289001
-0.471003
-0.422233
-0.164112
0.185614
0.463612
0.54639
0.398603
0.0800091
-0.266981
-0.481399
-0.46767
-0.231827
0.120205
0.424401
0.544037
0.428038
0.122114
-0.239055
-0.488445
-0.514789
-0.306846
0.0436736
0.374212
0.534296
0.455083
0.166661
-0.205741
-0.490071
-0.558601
-0.381991
-0.0370037
0.316751
0.515539
0.472428
0.202964
-0.176022
-0.488504
-0.59245
-0.443174
-0.105052
0.265671
0.495195
0.481991
0.230538
-0.148792
-0.478266
-0.606487
-0.478266
-0.148792
0.230538
0.481991
0.495195
0.265671
-0.105052
-0.443174
-0.59245
-0.488504
-0.176022
0.202964
0.472428
0.515539
0.316751
-0.0370037
-0.381991
-0.558601
-0.490071
-0.205741
0.166661
0.455083
0.534296
0.374212
0.0436736
-0.306846
-0.514789
-0.488445
-0.239055
0.122114
0.428038
0.544037
0.424401
0.120205
-0.231827
-0.46767
-0.481399
-0.266981
0.0800091
0.398603
0.54639
0.463612
0.185614
-0.164112
-0.422233
-0.471003
-0.289001
0.0425832
0.369753
0.544727
0.495674
0.243767
-0.100759
-0.377476
-0.458796
-0.308699
0.00590759
0.339128
0.53928
0.522983
0.297337
-0.041328
-0.337002
-0.667189
-0.53553
-0.195923
0.197962
0.463042
0.483218
0.249947
-0.136138
-0.496609
-0.667011
-0.575236
-0.259628
0.138524
0.433314
0.493358
0.293222
-0.0814129
-0.458105
-0.663696
-0.610563
-0.32077
0.0778183
0.399326
0.498773
0.334031
-0.0249515
-0.414155
-0.653861
-0.641218
-0.381549
0.0126331
0.358661
0.499153
0.374376
0.0367741
-0.361036
-0.63476
-0.665713
-0.441356
-0.0570905
0.310504
0.492707
0.411296
0.10029
-0.300967
-0.605593
-0.679144
-0.491292
-0.12094
0.262632
0.481286
0.439548
0.15497
-0.245162
-0.573021
-0.68097
-0.523759
-0.167298
0.225585
0.470401
0.458463
0.194884
-0.202357
-0.545888
-0.679094
-0.545888
-0.202357
0.194884
0.458463
0.470401
0.225585
-0.167298
-0.523759
-0.68097
-0.573021
-0.245162
0.15497
0.439548
0.481286
0.262632
-0.12094
-0.491292
-0.679144
-0.605593
-0.300967
0.10029
0.411296
0.492707
0.310504
-0.0570905
-0.441356
-0.665713
-0.63476
-0.361036
0.0367741
0.374376
0.499153
0.358661
0.0126331
-0.381549
-0.641218
-0.653861
-0.414155
-0.0249515
0.334031
0.498773
0.399326
0.0778183
-0.32077
-0.610563
-0.663696
-0.458105
-0.0814129
0.293222
0.493358
0.433314
0.138524
-0.259628
-0.575236
-0.667011
-0.496609
-0.136138
0.249947
0.483218
0.463042
0.197962
-0.195923
-0.53553
-0.612279
-0.484266
-0.154903
0.225913
0.481905
0.502275
0.278901
-0.0924766
-0.440798
-0.606215
-0.517514
-0.212372
0.1716