# vtk DataFile Version 3.0
PFC simulation results
ASCII
DATASET STRUCTURED_POINTS
DIMENSIONS 128 128 1
ORIGIN 0 0 0
SPACING 1 1 1
POINT_DATA 16384
SCALARS psi double
LOOKUP_TABLE default
33900.1
-12454.2
7875.42
-10545.6
-2506.18
2924.26
-8517.33
14008.9
-1109.52
2010.25
-5280.32
3310.57
13511.5
-7624.75
-2142.64
22791.4
4401.25
5328.29
15345.1
-13312.9
-26082
7184.32
14418.2
-9259.26
-7287.92
3271.71
7259.16
-3613.45
-4114.03
-2105.61
-1028.43
-3258.88
-30919.1
-1236.31
16558.5
4566.52
-2958.52
3784.02
1499.38
-3943.02
2139.23
-10022.4
-7601.3
-1900.48
6856.36
3732.57
-11738.9
-9268.37
-17346.2
147.12
-2020.39
-228.063
16653.9
306.397
-19167
-9389.4
-4638.07
-10764.5
-11772.4
18579.1
-3992.33
-12285.9
17272
450.889
-1829.37
-14068.5
3850.55
20076
3204.58
-9896.12
-1459.91
4671.53
24977.9
-7530.95
8738.14
7291.48
-3516.8
9513.47
7690.48
2708.47
-8474.31
13456.6
-10194.6
-11165.7
-4689
601.788
8437.21
-11829.3
-9624.59
11641.9
6710.13
3859.29
-13168.8
1391.99
-5753.18
-23209.5
10823.2
-19282.2
1145.73
-636.162
-101.552
2022.82
-11531.4
-5363.04
-3798.24
7546.72
11574.4
-1392.18
17498.6
20512.1
-15399.4
-12353.7
-5279.06
-1593.82
8358.75
-1801.17
-6185.69
11376.7
-8952.06
-5502.53
-12671.5
-2766.41
1995.22
1692.75
-4328.32
-1458.21
-10257.8
-4894.82
-7173.6
-3034.38
-3545.25
-35.1792
7326.05
6739.34
6099.72
6356.8
-8027.58
2504.11
1349.79
3305.09
17699.3
-4672.35
-12461.1
-1603.66
-5108.85
-7011.61
4493.75
4571.71
-1316.62
1059.67
-23236.4
-9526.59
13292.8
12007.2
1427.5
-698.729
14196.3
-4070.22
-6820.45
3221.36
14177.2
-8034.88
3283.15
3856.61
-15907.7
-5598.79
-12436.2
-5443.55
3335.39
-5996.07
-22154.8
-20535.3
5016.95
3069.51
-3886.38
-9992.82
-2576.51
-4711.2
-5183.03
-6613.59
2454.08
356.474
1395.49
2211.37
2191.43
-10222.9
-15335.3
5586.3
-801.378
11174.1
-12800.2
2162.51
5031.62
2645.24
-11065.5
9129.32
1191.74
-5784.94
6053.46
6973.94
-2433.2
-8663.62
-7773.37
2128.51
6969.7
-5301.33
14352.8
-13652.3
7237.21
-8360.4
-12487.8
2559.94
-3887.4
6702.64
4226.34
-1577.67
-8123.35
2773.98
6752.34
-874.32
6507.68
3989.89
-1900.09
-20224.1
-4393.44
-4456.97
-2580.52
-2320
-8902.72
-2190.94
11337.2
-15067.8
1455.36
-3242.01
-8013.56
4162.58
-719.642
6961.03
-2130.97
12752.7
3727.16
-795.715
-546.786
984.399
7163.46
4279.11
-2167.64
1242.27
-4898.56
8226.88
3094.63
13942.4
-3631.65
-1841.95
5295.21
-735.944
-3506.08
5344.44
-5434.97
-527.33
-5753.59
12839.7
-3640.94
-4653.59
-2369.7
2874.51
-19717.3
13490.9
-2603.46
111.774
-3768.89
10019.8
702.737
7699.97
-14502.7
-13591.7
-16651.4
-753.201
8471.95
1901.23
4420.14
7495.11
-6144.33
5978.8
-12700.8
-9619.36
3584.61
-22849.3
3813.96
-3057.67
10343.3
1792.99
187.25
1512.52
10905.1
-4815.93
-8358.3
-4304.46
-7442.29
-2634.74
-9170.39
-11809.9
10423.9
-6871.25
16323.3
-77.6262
11486.4
-2166.5
-1268.06
-12241.7
5210.73
-9619.41
5020.12
1909.32
3236.39
1290.79
8812.96
-11182.6
1626.02
-869.917
-1350.22
-14868.2
7055
-12871.8
9093.63
355.245
1871.4
6668.49
6059.55
5068.19
-2377.05
2006.49
244.026
5493.46
-2933.37
1988.24
-8138.45
-9780.13
-2451.68
-1644.96
-1792.52
-7146.03
-17102.5
-9792.05
1684
-5988.53
2616.61
9272.31
997.65
-4788.09
13055
5888.93
-9093.21
9383.58
12153
-1697.48
9988.42
-76.0161
-2979.13
12048.1
2069.84
-10654.7
9007.31
10400.3
-7788.59
-6480.12
-3691.1
1622
-3271.51
-368.533
5045.96
-6670.3
2958.28
8564.64
4966.31
470.484
-3179.4
-8045.49
352.389
-3429.13
-9746.16
-3543.28
3967.26
4251.32
1465.12
-1623.86
-1270.66
-6104.1
2720.11
-10007.4
4183.88
-24377.2
-1724.41
-4710.26
5832.4
-3480.77
7296.98
8395.77
-4760.69
-3291.92
7892.78
4054.04
-3953.9
13768.7
-4164.13
-1312.69
-4996.92
-3374.12
-1176.73
4668.22
10314.1
-1377.67
-12186.8
-5444.56
4494.38
7616.63
4414.98
1837.45
5442.25
1270.62
-8443.49
14467.8
6861.57
-8718.1
-5011.2
-12346.9
6291.99
8819.09
-14682.2
-9005.17
-1768.36
13183.3
-6859.27
-1500.68
-4845.51
5676.71
3020.36
5576.37
3153.51
-15854.8
5234.93
-117.524
-13629.5
-7701.22
-1363.22
8996.51
9267.91
-10216.7
-2623.9
-14664.9
1096.49
1267.19
3656.52
-1773.54
1396.1
-9245.36
-1101.51
-1837.94
-685.278
3464.39
1940.77
-8769.95
-713.593
887.068
2353.68
-8855.89
-7354.76
11858.2
-16566
-3189.45
5739.63
3242.12
3913.98
-5745.47
-6578.98
-1533.77
-11863.8
6851.92
3977.64
18998.4
1637.05
2295.88
-3009.08
-1703.69
554.21
4387.44
-4956.75
-6277.68
9326.36
-9664.2
-7929.57
1974.16
-8647.81
-5272.88
7177.33
-8586.54
523.666
-3774.85
-2317.73
3549.37
-6129.93
-6281.54
-7343.5
483.834
2556.31
4520.53
1253.76
-525.799
-11763.5
-6211.12
8798.93
-8818.09
-2326.74
-11485.9
9476.22
10656.1
4617.79
-3337.01
-655.29
-10140.1
4876.87
-8463.64
-7929.69
-6187.51
4031.09
-5292.73
4306.41
-4175.86
-8970.07
-9451.78
7227.66
-8922.49
2229.05
8219.79
-8572.28
-1091.74
10063.7
6771.84
-2949.55
10697.4
-2464.42
-6994.33
-9546.63
6032.58
-4765.24
-271.734
-3117.85
-2419.85
1270.54
13108.1
1415.51
6901.98
-2641.87
-12899.6
1887.42
9184.26
3303.77
7296.98
5450.75
507.435
-2095.43
10225.7
-17637.3
9433.28
-1656.05
4753.86
6933.86
5922.36
1300.77
-12956
4110.61
-234.454
1683.3
-5090.35
17516
8043
4125.63
-4982.47
-1388.71
1356.98
16568.9
4105.41
7303.81
-9336.96
8426.99
2341.66
2987.59
12111.1
-13940.5
10602
6601.2
5248.51
-12314.2
-4093.34
-1084
-3011.75
-10749.4
12053.6
18198.7
2634.84
-2577.51
-1070.68
-3481.06
8631.49
-883.768
-2555.25
8356.99
-13647.1
-7355.62
3335.26
7206.74
4340.61
-1196.36
10435.8
-2190.95
-3340.06
-2624.12
9698.38
-5961.86
2387.66
-4166.01
14484.3
-8176.17
-4796.57
-6307.63
-818.267
-12452.7
14985.4
1455.31
-1643.34
3145.82
-6368.47
-1806.05
-5944.11
-3409.61
-4287.17
-7180.61
-9314.96
6925.6
-606.468
-4158
-2842.41
11845.9
974.221
7947.68
-1958.53
3175.89
6137.34
11234.5
5167.03
1364.19
4077.83
9324.13
-9562.79
-3050.18
7671.28
10805.3
-5678.27
-10526.4
-11081.8
3456.13
3612.26
-6131.83
6235.05
3398.11
3029.9
5963.53
5684.25
745.525
3772.41
-13706.8
9218.76
-4887.43
12386.6
-2118.99
9853.11
-4094.28
13394.4
3914.91
-3325.77
1703.57
12307.7
-8268.64
-9792.81
-4148.16
776.016
-9033.97
4483.84
-5645.34
-11685.3
-3752.6
4632.33
1033.69
-5665.71
-3147.03
283.071
-5672.24
7000.47
1678.8
1946.74
-42.3036
-12105.6
9025
5126.23
-2243.49
-5243.52
-11269.4
-9570.77
593.154
4510.06
-7719.71
822.498
3330.64
653.224
-6081.76
3290.99
18705.1
-14033.2
-6190.28
-1099.64
2800.36
-11384.1
-9999.29
-15237.6
2800.61
-9069.41
-1896.05
-392.536
7034.32
9360.13
-7180.52
3722.41
1736.56
-2733.58
-2851.27
-5488.69
-2150.49
10842.6
3434.91
-3976.99
4988.27
8069.36
9057.16
10428.4
-8259.16
-1361.65
1805.33
4160.35
8071.09
1383.44
1700.36
9207.61
3492.32
-6337.65
-5397.82
-8743.39
-3924
4568.09
-303.915
-9730.94
163.422
-6183.95
-1605.44
-4450.62
-1836.99
-7534.24
-5331.15
-10753.4
2253.03
2856.78
-15560.5
12991
6457.27
-2724.34
6081.41
-1298.37
4483.28
10630.8
6616.84
-2302.73
-8281.62
-9524.69
299.23
-11654.6
-6465.43
11854.9
-5010.92
11344.5
-4129.56
4340.51
-4983.64
6521.79
-9046.35
-451.209
6224.88
-2792.81
10249.7
-410.762
14318.9
-7999.87
9975.38
-3646.94
10208.6
5810.03
3970.1
10411.3
12250.6
-8306.26
3860.83
-16885.6
6284.95
7031.56
-5112.1
3051.59
3200.38
9797.6
2733.42
9116.23
-947.465
1680.57
22.4461
6201.13
-6352.9
-10725.8
-6569.13
-8351.55
2340.18
4790.82
-181.176
7901.41
-15219.2
-8301.14
-8622.32
-11729.4
14244.8
-10278.8
-7020.77
2146.91
78.5029
-537.986
-2656.59
-9012.3
10527.7
-11863.6
-1067.79
11949.2
-1611.11
15835.4
19803.5
-7011.07
4364.13
5594.55
-2395.37
5301.04
-17931
-7772.66
-3798.43
-5754.16
-3201.02
1420.97
1896.48
-2976.51
-5554.76
-5593.89
1415.73
342.859
-482.909
-13011
-2356.27
-4500.31
147.921
5942.71
98.5898
-7655.09
6893.43
-4716.99
-2286.04
12734.9
2128.08
-2583.47
11565.4
24962.1
6183.22
1821.58
-2043.74
2370.91
-1544.8
-2666.11
5106.97
10595
2525.42
4452.09
3844.66
20544.7
1493.61
1522.75
-8312.69
1557.61
8533.45
-17657.3
-3082.21
-11998.8
-5721.13
-1833.7
12140
6751.14
3668.74
-12108.3
-4837.69
10964.6
4083.24
7860.86
-7899.45
-1403.41
5263.68
-8551.97
-3725.26
-10754.4
-8097.41
-14200.9
2594.86
5495.99
5890.88
2110.54
-1461.32
14122.4
2024.77
8514.93
-16145.8
-5825
-3758.65
3903.17
-3858.94
-1182.7
3645.25
-4030.98
-1937.23
-6418.34
-3124.01
1755.73
18203.3
2308.74
5769.02
-1179.43
-9453.54
-465.033
5878
-171.607
4721.49
3818.78
1597.8
-149.279
-7875.29
-6011.81
2900.47
750.621
8486.78
-6983.24
-13672.9
3529.11
-2791.61
-8984.39
-4371.2
-3333.76
-2983.89
-3023.01
125.275
-747.404
9405.62
-683.084
1552.44
-12180.4
17286.2
7532.07
-366.573
9333.06
10463.3
-4674.44
-6453.67
9977.2
6934.51
13605.4
-10469.6
-4058.24
-15727.7
-5257.88
3301.01
1187.25
312.467
-4236.87
3614.91
5986.01
1482.7
9258.98
10125.8
-6879.74
-6634.23
-2603.57
-12736
-989.2
-5843.89
-6754.82
2346.71
-3609.26
12589.9
-2515.51
-2232.65
4603.46
1573.22
7588.38
13867.6
-3220.64
-4953.99
3574.83
6913.44
21659.2
-2057.62
-2385.69
4437.07
1047.92
3440.48
5360.9
-3032.4
-2414.02
-3659.24
11655.9
-573.717
-17048
-10093.6
-742.097
-3157.69
17884.3
2364.1
5633.91
18067.7
-1197.71
-5350.8
-5744.43
-5685.6
3190.12
3373.83
-3229.63
7835.32
1766.43
-5979.04
-1229.52
-12374.9
12958.8
-12636.6
375.523
-2175.68
-10864.2
-4386.34
-10881.7
-2270.8
5584.49
13638.1
4551.34
5584.22
1536.38
-2384.97
1732.32
-6290.39
-4526.61
-5880.4
-13737.4
1969.7
3814.98
-1855.59
-6685.63
-11714.1
3373.77
-6201.88
-11165.5
-14341.7
9079.78
-4211.72
1861.98
3067.22
-9441.44
12487.5
-9608.89
-12976.6
-11457.4
-8126.26
11939.7
7461.22
-5822.99
1958.35
10176.3
-3496.75
2497.27
-3792.82
12819.5
8145.61
4528.53
924.884
2697.66
-9489.58
1718.18
-3263.18
9947.82
-8695.27
2272.6
3024.53
-7910.85
-648.508
12.681
-840.182
-7811.76
5696.77
-7464.97
6954.98
-2023.63
11060.1
-5927.06
337.964
-5317.82
879.904
-8549.75
1450.12
730.014
6447.59
1056.03
-1267.74
-7781.65
-14124.4
11640.7
-1216.75
5471.83
13286.4
-8156.3
1178.3
-4151.61
5629.31
5710.53
-523.487
-5095.03
1082.77
-13276.8
-6760.65
10990.5
-8178.48
2691.88
-5853.71
-10679.8
-180.693
-1452.77
-10850.3
-2290.69
-3390.49
10390.3
61.2618
682.867
8168.7
-2006.15
5617.05
9673.15
-12423
-8124.73
-13630.7
6502.83
6742.87
4814.5
-4560.15
-1347.08
-3039.71
-17229.8
2434.49
1468.68
96.6887
163.762
-14583.3
673.476
-6788.83
-8139.51
7248.67
-5725.9
10200
14253.6
3724.68
3905.11
10090.7
5564.71
-4716.71
522.62
109.44
11636.4
-7777.64
-17808.3
8008
-3358.61
6419.12
-6512.83
5959.8
-6104.86
-3345.48
-1637.71
-14278.7
2406.41
-11600.8
2301.67
-3209.67
-7388.77
18786.6
2091.71
1828.22
-12804.8
-3208.88
-5878.39
-2958.67
1366.68
-2373.09
-2889.97
-392.305
7821.52
-6193.36
4053.76
1287.86
-977.254
-15478.4
4545.62
-7677.56
-1121.46
-1735.69
-15243.5
9092.26
25.3879
13330.1
-6106.87
-6061.86
6445.06
13452.5
-5913.25
-5672.98
-1414.16
771.155
6562.57
3641.86
6834.14
-6532.67
-10522.3
-5442.48
16113
10068.1
2955.1
8673.32
7393.95
-265.03
3575.45
-8739.73
-11240.7
2679.25
-8666.84
-7846.22
3735.7
8864.26
9652.84
-12099.4
3508.83
13826
11974.3
-8292.32
2839.05
1222.69
1027.2
3778.06
1803.36
-1139.49
23006.2
-3065.37
13882.9
-4472.43
984.903
5845.02
4736.79
-6504.22
11774.9
-2599.25
1456.58
-4724.02
-1615.98
5469.78
4908.73
9411.32
-11395.2
226.709
-16329.2
8519.85
5910.48
915.222
12461.5
-7666.29
-5345.54
1841.59
9152.34
765.46
-3073.81
-10306.8
-7421.32
-7856.4
1184
-7554.54
-1128.98
-8226.29
7441.81
-6717.5
-2283.31
-1535.25
-15506.9
10173.5
-8780.18
2010.92
6202.76
5792.54
-13135.9
5444.63
1961.77
-2599.75
-5911.01
2437.32
-6784.44
-2751.53
-482.728
18454.8
-13199.8
-2916.59
-10437.4
-6718.01
-6141.54
5645.19
-16681.5
-8057.37
-9282.28
-15508.3
-13647.2
829.81
-2974.43
1913.76
2014.15
-3306.91
-1922.26
2008.96
3280.89
-256.047
5817.1
4544
6879.2
6903.65
-3995.4
17292.1
-10468
8226.24
-6787.54
-827.893
-1079.84
13680.8
12988.9
-4685.54
8032.62
-11514.2
16297.8
-5909.53
-1920.36
-11885.5
-7890.45
-12733.2
-13897.3
8537.29
6469.5
-8661.15
756.186
4552.72
-8639.44
-3570.96
3837.7
6665.14
8661.61
7136.62
5340.24
-8117.61
-6721.6
-1253.98
2426.24
-9501.86
6983.96
-7491.49
5786.39
11337.7
9950.2
-11087.4
2325.71
-5185.29
3508.13
-4868.34
917.425
-575.886
992.081
879.641
8019.72
14491.2
5874.97
-1047.78
14976.2
-2553.53
11286.7
-4167.79
12772.9
-12633.8
2360.25
5163.9
-1824.84
7990.57
-4450.33
103.43
4778.94
-4421.1
-15446
-18644.5
479.418
-723.638
1219.4
-8279.13
-11632.7
582.977
-2532.12
1649.34
-5599.6
-8249.05
-7670.75
2840.87
6762.71
5849.44
9147.95
-2249.52
-2833.06
15597.8
2738.36
3649.36
5584.3
3264.38
-868.366
3962.74
-3623.9
-13916.9
14369.1
13346.8
2290.18
3783.21
8422.08
-5026.03
-6238.09
-4824.49
-8066.07
-12621.1
10477.7
9490.46
-3636.41
-2177.75
-12427.2
-8935.33
17383
571.563
477.197
12808.6
13041
-13409.3
6021.15
-10091.4
2739.14
4599.8
1839.92
-1294.95
4103.32
-452.351
-1582.41
-10403.6
3520.72
4373.16
11635
-5880.9
-1314.94
21045.6
16284
9620.92
-3013.88
3708.06
371.034
4048
-20094.3
-5195.86
1489.68
-4337.63
-9436.92
10550.8
-8569.11
3521.62
-15879.9
-1554.01
5310.93
7122.38
-2864.29
4558.82
-1103.79
-13220.1
-15167.7
-13214.2
4084.34
10324.6
-4840.2
-3143.09
-4729.87
12193
-6845.13
-279.992
-10233.1
11793.5
1310.65
10688.7
5149.47
-1186.04
-3659.73
9083.22
-10814
-1271.77
4574.84
9572.04
-6440.27
6670.59
6454.94
4110.14
-6155.87
-5955.64
6637.47
-4605.78
2368.73
969.285
-4309.8
-8756.42
-3494.95
5486.16
-1699.29
-14585.8
-4049.09
8240.24
-3230.16
4592.11
-5837.26
7066.02
-14478.7
2367.75
-13503.6
10076.7
20248.8
765.263
7639.71
-7371.27
6926.38
5781.05
5969.11
6310.32
-3518.28
368.381
11600.8
-3974.76
-6876.63
16953.3
-5655.97
-11912.9
-2859.29
-6283.59
8276.39
-15677.3
-2887.94
7996.19
-6659.07
403.282
9797.96
-12863.5
27782.3
-553.903
-15569.2
8711.69
-6298.25
285.241
15163.2
9291.37
3889.32
8763.69
-13834.4
2875.25
10328.7
1335.4
813.428
-8564.42
-6148.9
-5581.25
12264.1
7974.64
2215.75
-5032.5
37.6563
15439.5
-5609.42
-2053.24
4886.84
-5339.64
-21225.4
-508.388
-18062.8
-12506.3
-3672.59
-4167.79
-4599.89
-7665.23
7266.19
-2161.63
-10343.7
5989.14
1133.67
-3742.14
27098.6
5304.14
6911.11
-8575.14
-3309.8
-2108.08
9125.42
-149.082
13619.7
-4183.12
-1576.16
126.429
-8857.05
5302.41
-9190.71
10665.1
3273.76
-1361.88
-15316.3
4413.1
-5047.56
8472.19
6408.67
-5103.39
-6382.58
-4991.02
10018.9
-7936.7
-321.385
-2668.19
-1389.64
-2123.44
-861.819
-2322.81
19800.3
2973.65
6064.09
-637.936
-5466.33
-10277
-6159.22
3967.26
-1962.04
-4695.4
-5747.17
3059.57
10062.3
-4137.29
-1303.19
-2657.73
3416.37
4855.22
6994.6
1286.99
-7513.18
-1022.51
-4941.56
13406.4
-7212.48
7398.85
3980.81
1974.65
7319.58
-3490.65
-6697.06
-3131.1
-10127.8
-5954.4
-3868.85
-1384.89
18314.9
-496.122
775.08
-8792.67
2100.6
-2893.24
553.501
-17923.5
-3855.13
3655.69
13491.3
-3889.89
-9592.58
-8398.35
6494.89
3213.89
-578.928
-2686
13603.6
7257.21
-5489.69
-5750.16
1599.48
-6338.15
789.154
-9087.32
-531.315
4372.08
1161.93
-7762.44
247.683
-251.646
3969.75
9229.53
12351.8
2565.76
1163.49
-19346.9
2660.43
-6814.74
-3580.26
-11655.7
2010.26
-13334.6
-3711.82
466.591
-96.32
3458.31
2441.64
-1682.41
-17470.4
-461.758
-1518.78
6751.4
-11678.3
2022.8
2496.93
3687.35
-293.083
-8248.21
-4287.91
-9483.83
-7967.56
-7040.82
4060.27
-3044.56
10427.2
8684.01
1354.7
-7266.06
-4157.52
-471.511
4614.97
6534.73
-15540.1
-170.434
5006.14
10834.7
-7024.67
-1207.03
-3595.1
1841.01
5402.08
3528.58
-605.437
11254
-4624.78
-11627.1
2474.46
10858.3
3544.38
-152.197
-1747.16
8206.48
17126.1
-6899.26
-5246.64
-5635.01
-18852.1
1496.06
-9249.07
-7192.15
-13481.6
6485.11
8504.15
3010.27
7710.62
-14785.7
-10737.2
-2061.88
-2633.24
1222.82
1028.49
3457.39
-983.829
-63.0411
4353.8
3350.45
-4425.78
9996.12
-65.4102
5051.19
14943.6
2776.64
1192.84
11028.3
6281.08
719.465
5724.56
1481.81
6910.31
-5404.28
10724.2
5246.14
5403.72
816.742
10282.9
480.745
1064.48
-5030.55
9850.56
1138.57
8250.16
-2428.85
7097.17
1037.12
2494.09
3840.03
-10557.1
10319.8
-3276.19
-14913.9
-13319.2
-3365.43
3414.52
-10618.4
11494.4
-5608.74
-1815.94
7980.97
2420.26
-6415.99
-459.679
4341.34
-1937.67
-4469.02
-8506.86
-8276.85
20681.8
-4029.01
10619.9
-2824.21
-13335.6
-1400.01
-4032.22
-651.912
-6045.18
-11043.8
5797.02
6643.13
8763.07
-3559.41
-9739.52
4835.32
1470.25
5517.33
-2236.6
-4932.99
-7529.12
706.669
-5770.72
-4538.54
1384.55
-11863.2
3403.46
69.0239
-4852.49
2951.45
-4134.76
-5896.31
-13614.6
2204.39
913.632
-26492.3
2796.74
-2589.57
-6305.74
1046.14
1053.68
-4054.5
10208.7
-3568.81
4852.55
2343.44
11898.8
3322.35
115.948
-2557.96
5263.93
10505.3
-4639.23
6766.25
-12783.5
-2177.64
-5679.62
23244.6
-3877.01
-20933.8
15495.4
142.169
-10498.6
6701.56
1117.61
181.494
12546.3
-10048.9
-6940.45
6583.81
-6814.57
-7922.18
12758.2
-5157.29
-3157.29
5882.59
8807.7
-395.665
8950.35
-3050.98
-2883.03
7792.3
16069.8
5768.47
3146.5
-3441.36
-2209.64
8183.47
13043.8
-2205.51
9362.49
-1023.63
-12916.5
7821.12
-12648.3
-11796.1
-4091.62
-2737.6
-1181.81
6534.2
-2084.88
-11235
10446.9
-12163.2
-8047.24
-1622.31
1155.46
-281.921
-1002.46
-3107.64
-1240.06
810.555
994.105
-1859.31
9301.97
-4818.78
7779.7
9570.74
-4261.35
-2777.67
-2076.68
-12097.3
-555.206
390.627
8698.48
-11952
7693.24
-12159.6
-1323.47
12190.4
17230.5
-1696.6
-1312.69
-1679.88
-5719.26
2830
6777.15
3965.84
9638.03
11335
1484.21
998.02
-1360.72
17644.7
-6036.61
10068.1
3516.02
7201.06
1113.17
3114.86
-6957.77
-1008.57
9743.11
-14561.4
-2302.5
3614.32
-2360.53
-4313.8
5058.96
-10258.9
-4254.95
7557.31
-2948.31
-7751.43
2437.39
-6743.22
3100.42
-2092.53
5812.12
-5789.7
11306.8
-15120.6
-7804.52
10603.9
10874.4
-12615.3
-12263.8
-12253.1
-10187.6
2122.47
-6811.22
-6959.93
11218.7
-5289.13
-6318
10527.9
-2600.44
-3976.22
18155.2
203.068
11424.5
-329.062
-4052.95
-9324.47
13471.5
13749.7
-4603.04
4279.94
11183
-1314.11
6507.01
-1654.21
-11543.6
-8881.13
2555.39
5582.37
24843.9
2250.51
-2778.77
-12640.8
3162.02
-895.485
-4425.23
-2331.04
8835.27
6038.42
5478.96
-13310.6
-8469.75
1591.36
-8213.06
7209.56
16927.3
-20959.2
2941.53
-4174.83
-19059.9
-2507
-1960.93
-13622
-2616.75
2884.6
-9898.26
5654.33
1531.97
-14715.2
-8816.03
4737.02
-13150.6
-2728.52
15856.8
6996.35
-2941.26
1448.35
-11527
3188.66
4704.42
-15176.5
-4122.76
-14266.8
-2049.66
6354.63
-11568.9
-7859.61
-3406.53
-11081
8421.64
10505.9
-3492.62
-2256.67
2977.19
12778
3540.62
3306.82
9090.25
-3739.42
1894.61
6554.27
10342.7
6127.13
10132
-17630.7
2402.87
614.913
-15493.6
4847.69
-6679.53
-20147.8
-2745.51
2690.84
168.856
1708.35
7908.66
-15445.4
5677.92
5355.58
-6620.3
-8567.13
6421.53
-1117.58
12117.2
-838.966
14.5664
-6967.84
-1387.44
-4038.5
16027.3
7989.85
-16842.4
14813.1
7349.64
483.387
-2718.36
-2584.35
203.315
16347.4
1925.53
12306.9
18164.5
-3413.97
-13510
9576.87
-5352.8
3472.67
843.104
-7447.89
-6404.58
-5536.35
4482.97
-400.794
-5425.79
7098.54
693.672
17111.2
11908
-842.99
1841.95
9515.42
-8000.63
-566.346
10915.2
2378.78
3391.53
-2369.38
-12255.1
11280.3
8109.33
-11242.4
33607.5
-2034.63
-16523.3
5319.8
3364.54
-3117.57
5888.32
-9078.18
-4690.2
8177.4
1449.24
-9246.09
-4135.17
3993.92
15530.2
14851.8
6380.95
5142.22
662.738
3011.44
-11016.2
187.898
-6795.21
-14069.2
-3424.39
-7576.47
3391.46
-6683.55
4289.26
-16115.3
5318.12
-12643.5
-2207.27
-924.778
19030.7
-6182.17
-2805.55
8367.08
4046.12
6831.38
4145.85
7352.76
-10583.8
-2073.94
2639.59
-1787.08
-14061.3
670.476
-3839.44
-3901.13
-3424.06
-1287.94
5109.03
17507.6
-7346.63
-8636.48
11374.6
-1640.06
149.444
1505.95
-7141.61
-4271.62
6639.33
-10732.6
-4782.3
4621.15
-2210.89
3935.6
18785.9
-7014.36
-11633.8
-3360.82
1440.24
-16272.6
2994.69
-1087.4
-11614
-6353.66
4221.77
2578.86
5526.43
6997.17
-910.923
12784.5
-2968.79
-11279.2
5417.1
12227.4
-578.251
4755.8
8005.99
-16496.5
4116.32
10372.3
588.854
346.918
1115.42
-9325.8
9040.87
15384.1
-12394.9
-6707.46
17840.2
-11803.5
1508.12
8530.41
-3154.2
-8356.07
-2017.87
-4022.93
6581.21
-4000.9
-8609.71
9094.87
5301.76
-10405.1
1669.79
11673.7
4793.36
-5244.17
5114.88
-292.93
4982.1
3564.22
3869.47
-4058.67
-1848.36
-3033.34
11823.9
-3482.62
-4841.19
-53.5669
10122.8
8007.82
15077.8
-10358.1
-15398.6
-10141.8
-19328.7
-1650.6
7537.08
-4612.09
9720.99
-3186.46
-11319.9
4946.57
2059.9
7654.1
1470.37
5310.67
2244.51
-1050.8
-887.064
-4001.57
-14999.3
-6215.97
5431.6
-8943.67
1845.67
-1422.21
4002.77
11947.9
7582.45
12803.3
-891.41
-3883.34
578.348
-2376.8
-4393.13
5881.13
-723.258
-4279.24
4675.57
-6172.17
-1979.01
1802.19
-945.462
6949.12
9842.21
-1146.23
57.224
6806.11
1492.04
-11604.8
-11480
-1127.05
-6120.62
-1601.23
3524.34
-922.895
-5488.78
-9548.17
-4625.82
-5251.68
1952.57
3884.74
-1019.37
6194.79
8669.71
-6775.77
397.399
4356.54
6601.86
-14961.4
1009.23
-8742.66
14917.9
12.3062
6406.59
3919.38
1121
3614.11
6441.68
6795.25
-4669.37
4585.64
-6141.61
-12242.1
-395.943
2695.33
5694.83
1865.06
488.088
1276.08
8057.44
19064.6
-6276.05
-1438.6
-6849.08
-8380.81
-9452.53
1419.82
3424.05
5174.14
10448.7
5544.59
20713.7
-1325.15
11863.9
-20996.6
7255.5
-506.499
-9057.93
10067.4
-18218.3
14592.2
3087.38
-13273.1
20657.7
-18021.3
16324.4
-10899.2
-8558.34
10467.2
-11630.5
26972.9
-2513.49
-3688.49
-14364.2
-12535.2
2219.19
-8565.67
221.667
20170.5
-21740.3
21289.7
-10851.5
994.922
8511.44
-35023.7
-486.89
-511.045
3869.74
-3859
-9463.95
6702.46
-17164
19108.3
11702.2
-16934.3
11832
-11939.7
9861.27
6613.17
-4043.23
16839.9
-13111.4
9697.64
10906.1
9823.19
12641.8
-12221
17350
-6181.7
-9895.09
14830.6
-778.845
22088.8
-1051.51
982.374
-8850.92
-1971.94
16508.1
-4890.12
13628.2
16407.7
-10333.5
15338.5
-11501.4
-8504.17
-14546.8
-19984.7
1508.71
-17293.7
-1505.4
8314.6
7428.58
12837.1
-18446.7
14898.8
-6812.11
-5099.18
3339.93
-11360.8
25957.9
3571.96
12955.9
-12697.2
-19692.1
13255.5
-21710.1
10448.9
970.763
-11448.2
7062.93
-8035.39
9368.85
3761.7
-3486.86
8574.96
-17879.4
5574.89
-16754.4
-3374.91
-508.967
-4383.11
9305.31
-6849.66
11387.6
13476.8
-24006.9
26088.8
1384.64
-2350.33
-4961.76
-16150
20590
-5800.29
8863.33
2255.54
-16937.6
31755
-12598.3
8478.33
-3880.33
36.7275
-1789.56
469.916
-12656.8
9508.69
-74.0147
-12062.5
7625.34
-1310.29
-4820.88
2042.37
-773.004
6403.83
13194
5634.79
1879.75
9667.38
5623.89
4081.44
-3030.74
21289.8
2638.97
-3652.5
1157.58
-595.485
2589.62
5931.6
9554.85
-5709.83
-4612.5
-13296.4
18316.4
16246.7
6539.13
-256.093
720.134
8195.07
-3512.45
-3253.41
-5777.94
-7176.44
-11663.8
3284.76
3630.56
1138.81
-13550
-17.4724
11888
10305.4
-1836.81
-14217.5
8408.06
8186.94
7233.49
1873.26
4703.47
-6927.1
-2899.45
7235.73
-10678.1
7580.69
-740.682
-7166.61
8797.43
-1492.38
2188.3
2029.55
6167.21
9801.41
7304.32
-10347.4
-11277.3
10644.2
-12514.7
3288.1
2498.58
-5224.55
2727.03
11809.2
11363.8
3629.36
1144.15
-10265.2
11808.5
2335.26
-2546.48
-10850.6
-3033.06
-13313.5
-3581.88
-16754.8
5277.92
-4381.56
-2249.03
-1238.92
-9636.33
-6895.26
-4336.49
-2701.32
-13549.7
7987.16
2522.98
-150.399
-919.693
-5715.5
-8575.43
-1674.15
1789.68
2111.3
-6711.59
-10334.5
-6637.38
-887.516
-11559.3
7776.02
-3482.14
4986.39
-6015.76
-2256.52
-2724.02
-2251.84
-3706.07
11835.1
-4688.18
-8329.16
-2092.8
-12664.8
2439.18
-1798.85
1707.01
-4674.13
8460.68
2969.42
-12968.7
-9451.23
8593.7
1358.3
-824.722
-10731.6
13830.2
2919.92
1752.9
2448.03
11929.8
5994.68
2541.43
-2559.36
2098.68
-266.451
2224.11
6069
2017.66
-680.487
14077.6
-335.014
1731.83
2119.38
-3201.47
-7126.73
-4313.87
-4745.44
3259.65
-2443.9
908.541
6752.54
8171.77
-2479.81
-6906.22
-4961.79
-7886.62
3086.55
-8265.07
-3390.17
-17256.6
-5595.36
-331.669
1056.72
-6018.47
7125.14
-950.359
7974.03
10588
-4518.51
-17155.9
-5024.32
-2311.32
-2696.68
-4653.94
-4977.63
-4271.74
-1182.59
-1401
-392.428
-15403.1
559.489
-8740.77
10318.4
10465
14552.5
-9534.83
-2515.7
-2510.51
-5855.95
-595.362
8963.23
7105.38
-4278.64
-13419.6
-2263.37
-8306.17
11087.3
-52.8742
3840.84
-7988.76
3602.36
5259.95
4868.13
-3661.19
-7405.25
4336.86
-3176.98
4485.14
-3060.03
3920.65
17.7534
1762.4
1702.52
7438.65
-4887.69
-10352.3
4852.15
7031.36
-6343.02
-1676.61
10238.1
265.562
-6225.67
-5931.61
-2857.79
-9844.88
-6319.5
6209.71
-231.221
6457.17
-5450.14
-18095.9
-3376.75
11050.6
1725.73
6326.25
-18732.3
-6616.45
4834.39
-2859.67
-13861.6
-1922.33
19412.5
5426.41
10067.1
327.502
12783.5
-2901.16
11763.4
5335.9
-7657.64
-10159.9
-17582.1
15927.5
11642.2
1457.99
4100.19
-194.81
-1511.87
-7548.93
3540
1380.06
-6861.91
-9163.32
-7970.56
-2493.04
-8018.67
-12812.1
-4805.67
-14074.2
-7854.93
-3500.69
-1503.59
513.014
-10839.8
12649.2
-8030.28
6354.74
8974.33
12846
-2827.64
-7792.27
-3901.24
-7651.08
8791.6
-276.664
-3037.35
9369.58
24607.2
14384.5
5272.18
5801.18
23264.5
8865.94
12707.6
-8508.68
7162.05
-2072.15
2330.72
-3341.15
-1015.97
-12037.6
13147.9
-1938.09
1424.59
-9660.55
-5045.87
11365.6
8066.4
11522.2
3501.87
6092.57
-4572.46
5622.68
-16765.2
2752.39
-997.33
-7977.82
-13990.2
8481.72
-11220.4
-482.512
-1661.75
14909.7
-8068.93
-18161.4
-9153.7
-10637.8
-13640.1
-1003.4
5099.25
6777.35
-6418.89
13777.4
12086.5
7959.09
204.885
-5395.89
-974.392
7698.94
13273.9
12540.6
3083.8
-3074.52
-17924.3
-3510.1
-5016.88
7031.99
818.232
-17778.8
-11231
3510.97
3759.27
-4271.86
14433.7
13360.1
-3927.21
6169.88
4317.24
-2852.08
-1407.39
1825.68
4688.35
-2968.28
-6956.35
5428.76
-6969.98
-13260.6
3974.2
-1587.71
-15133.9
-9163.13
-5406.52
-5104.41
6307.2
-1760.58
-2813.85
-4045.87
-2425.01
1207.2
7214.19
283.698
11431.4
2352.46
-3756.75
-2855.3
-5002.06
7944.81
1314.7
-3074.83
-7337.54
-1818.22
4564.86
5869.86
1919.47
-10294.5
1979.96
-6436.87
2912.13
14680
-38.9269
1600.58
-5647.27
13705.3
-1740.52
-2239.5
-2995.77
10999.1
832.873
-4259.22
-3739.18
3348.2
-9902.21
13919.2
2813.35
-2252.74
-11248.6
-13870.2
-9115.75
-8125.56
9440.18
-5080.82
-519.487
1368.14
7408.68
4467.16
-12187.7
-4801.56
736.661
-4907.34
-1776.8
72.5389
-7585.64
-558.482
12445.9
3489.62
-10282.7
9391.08
-5703.79
1781.54
13317
-3016.96
7972.83
-3915.91
7185.75
-10504.8
-6337.33
-8957.73
-9806.56
-8244.7
-9152.6
4941.39
-9251.35
-263.552
5704.79
15571
9400.59
2528.48
-1619.57
4085.69
-1893.82
755.598
-5124.53
11110.9
-435.382
1292.34
6613.34
-1209.63
1195.84
3653.15
-3842.74
-3731.07
2006.89
3472.58
-10606.4
12.2076
15881.5
115.412
-2925.25
900.03
-8233.56
-13779.8
3921.69
13112.8
-1609.49
11120.3
5023.44
9337.19
-3809.69
-8952.03
2926.41
1042.28
9123.55
4066.05
7249.12
-10915.1
18231.7
-18062.8
-1701.29
-8784.58
4536.79
8.6845
-2193.75
2195.04
3495.19
-7904.46
-13837.6
-2903.76
-5475.88
-9747.77
780.784
-3932.48
5936.94
5220.36
-2927.44
7760.88
1388.26
-3606.19
5318.57
2147.88
-11728.3
65.9926
3445.61
-10637.8
13651.5
-7078.74
-7522.34
1697.48
2113.64
-1710.74
7199.72
-709.643
57.1387
-1911.72
-18865.8
-31.4011
-1964.49
-17976.2
17138.6
16612.2
1714.54
715.683
2785.25
-1544.14
-5570.01
-5385.3
-3179.75
11891.7
234.752
2100.82
-3276.59
-2525.75
-8879.61
-6002.33
-3870.48
-913.132
-1962.76
-777.185
5532.09
2460.11
14269
-6197.77
7002.72
-7019.32
-1815.64
-452.41
21190.8
5297.31
-9069.61
6358.15
-2031.39
-3108.85
1329.29
9228.3
3677.49
-2221.45
-6104.25
2862
-410.144
-15155.6
-4349.92
7953.54
13554
-1430.29
-1234.05
-1929.35
-2118.8
-5079.47
-12287.7
2912.78
-2101.56
-1607.6
-12436.5
-3372.31
-4210.52
-2925.51
6593.26
-14776.5
1875.71
-14383.4
-13797.6
-2745.18
-11269.8
6231.34
-4909.5
-3572.91
-3912.99
7723.41
3166.75
-10418.5
6184.29
-15812.4
9819.42
10202.7
-2928.94
-5582.98
-6028.15
13688.7
-4813.21
-9212.06
-11426.9
2485.61
17659.1
-199.139
10154.1
-1352.14
-6321.94
871.122
12184.2
-5803.75
5671.12
1574.61
-8515.47
-3313.78
-250.53
10026.4
8814.16
2476.42
-20928.2
3885.12
-5442.13
9175.44
9455.1
9905.84
-2127.44
3129.55
76.8861
-4620.9
2483.09
-6731.56
5463.66
9755.78
17799.2
-17051.6
-11645.8
-3924.21
-4440.86
6262.5
-6781.05
3653.38
-461.875
5650.23
8267.33
1852.74
-1589.4
-11681.2
11824.8
639.023
16327.1
1581.9
-3420.85
9257.01
-7464.9
-2310.15
-6230.24
6820.75
-6994.45
-11187.5
-5150.77
-19020.7
-7445.52
14352
7598.95
288.016
-13423.5
-5525.28
-8775.24
9512.14
-12992.7
2245.26
-5395.7
-20193.8
400.205
-4584.93
13717.2
24117.4
4550.93
-1374.78
6892.07
2671.39
3282.09
9335.03
-10758.1
7532.68
-10531.7
624.037
7667.12
11299.5
4591.08
12451.9
3495.51
3890.22
20925.2
1466.54
-867.769
-10402.9
13139.7
-5942.04
-201.2
5903.32
-1145.74
-10718.3
1583.17
401.419
-2284.95
7259.79
13183.5
3163.07
9660.57
-414.859
-12554.5
-16306.6
1500.32
-10122.4
8443.06
-4763.76
8335.69
474.886
3388.11
-8315.79
169.837
2975.9
-250.121
5192.12
-3010.26
-3941.09
825.964
1668.47
7418.4
-2413.38
-367.188
-12519.9
15642.6
10482.9
-5497.4
11756.7
11785.9
4884.09
-9597.02
274.045
2704.99
4975.6
-9472.39
7884.34
6600.29
-15525.3
-10052.1
-10105.2
-9945
-7500.66
-383.508
-3860.86
-5556.56
11260.8
13626.3
11337
-7381.64
2417.67
-8454.28
-531.648
8132.01
7989.92
-12803.6
-3042.99
3100.81
12188
-11351.5
-5156.15
-5889.43
-1686.65
-10397.8
9988.98
14118.9
3605.81
-6752.05
-105.938
-5375.95
-6519.25
4228.69
-4942.99
-4243.59
8909.36
-1744.09
-4720.37
6559
6644.74
-5220.18
4413.21
-8087.24
5463.73
-2986.97
6480.71
1315.55
-1840.86
-1440.97
-1026.68
-6360.77
-2929.47
-2809.45
-10191.8
200.663
-896.122
421.647
-2552.44
-3019.93
-19267.3
3585.18
-11040.4
-2108.14
2932.64
-3535.64
859.824
9130.96
-1265.16
-6038.35
-4572.76
5435.33
-3977.39
-4176.81
-11805.8
7965.31
4291.62
2355.85
3730.93
-5974.82
4124.16
-2995.43
-1226.96
9856.81
6127.67
-408.724
-18693.6
-2239.02
2434.82
-1476.59
-3585.35
8812.21
5311.11
-7933.72
-8836.57
9140.8
3655.62
-1444.41
-21029
4064.37
974.379
-5267.29
3630.99
-6804.22
-4959.84
-4215.14
3124.35
2343.22
3512.75
-6113.07
-6736.78
3651.07
-5860.16
2588.51
2349.59
-6042.46
-6346.34
983.237
7871.53
4215.99
-2765.53
2256.8
8337.37
-2043.88
-10078.4
-13408.9
2970.96
-6545.55
-6030.85
-2184.47
13931.8
-5637.52
-3602.65
9442.63
8647.65
-5992.06
-10857.6
2384.73
-11066.4
-7964.61
964.499
1035.52
-138.34
6381.41
-3781.68
1264.75
2360.5
2470.64
-8580.75
3973.92
7018.87
10104.9
2078.97
9935.97
-1870.08
-189.477
3219.94
18842.7
-7627.96
-4350.72
-358.856
12571.9
-8838.01
-8792.13
-7286.49
-6184.57
-5271.22
-15185.1
-2918.68
1720.15
13486.9
4277.31
6774.19
9853.35
9352.1
-4984.82
-17794
-5720.5
6005.04
-118.837
-7847.22
7426.74
4100.87
1463.87
-7655.09
-14243.1
2385.94
-6793.29
3033.21
-3297.69
3249.72
6361.28
8880.58
-19247.5
-7400.65
980.714
5371.79
852.433
4641.91
-5500.26
-40.8196
-7480.69
3321.75
1800.72
11936.4
8595.93
-12609.9
7072.28
9601.2
7365.81
-5561.63
3372.29
-2659.13