# vtk DataFile Version 3.0
PFC simulation results
ASCII
DATASET STRUCTURED_POINTS
DIMENSIONS 128 128 1
ORIGIN 0 0 0
SPACING 1 1 1
POINT_DATA 16384
SCALARS psi double
LOOKUP_TABLE default
11935.6
-7203.04
-5262.32
15099.7
15081.1
9495.6
8409.03
-1960.04
10252.6
3459.88
5218.51
-3311.28
-2045.46
4916.62
-18573
-5079.3
6579.51
-6460.06
-76.2767
-6768.29
3195.13
-871.376
-5433.72
10848.1
14075.5
-12455.8
3435.91
4963.66
-11761.5
-14600.6
4131.81
-7493.93
-4065.75
-2459.99
-4726.51
5806.95
1977.64
-14431.4
-2220.6
12991.9
8336.99
-4820.51
873.963
-8496.72
563.101
-6728.31
-11419.5
5903.42
-9382.06
-21034.8
-7308.98
10798.8
480.152
-2447.51
1647.47
-2446.27
-17424.7
3216.72
1518.45
7043.76
-11871.9
-256.922
-8663.68
-8605.54
-12406.3
1571.66
753.37
-2507.93
-3011.74
9024.5
12486
-8189.34
-1018.66
-10973.2
10858.6
4337.34
-6809.16
-995.014
-8277.86
-22346.1
-5731.94
8103.93
10840.3
-12096.2
384.165
-7278.33
6863.43
4417.19
10939.8
3722.22
2056.78
2105.68
-1095.82
1030.47
-1821.28
-13485.5
16373.5
9075.31
-8434.2
19245.6
-4754.08
5941.23
3316.51
10363.9
11081.7
882.241
6616.47
3753.27
-5489.39
973.884
13188.7
-9261.27
-7434.56
12205.2
9008.31
-3866.19
8447.61
22504.6
-2120.22
10090
-1001.45
8232.68
-719.96
1325.83
5587.64
5054.34
-2011.18
-7178.24
-4105.86
9297.56
3357.27
-3515.02
9866.56
-3684.35
10548.6
200.208
-6550.68
1142.95
-6988.44
-15997.9
8620.6
-7378.44
1268.61
-3959.87
-4369.09
-2632.04
-517.473
-7546.63
11628
-9003.66
-10357.6
8492.02
-2110.34
-11508.6
-6597.99
-6536.23
-13703.8
-5227.53
-7586.66
-3715.38
-5063.76
2786.21
-9520.79
7255.64
-6227.46
-4020.02
3257.9
418.983
-7223.62
13071.2
-9193.81
-3656.39
-9553.97
-6275.87
-6449.31
-4724.84
-1525.85
-9117.75
11121.3
-2626.49
-6720.75
3449.17
4197.88
-4312.22
9412.83
5625.41
11973.9
-6793.42
-6489.92
10341.1
-6293.12
-1881.61
5681.93
1426.72
-1575.41
248.703
358.327
7423.43
4797.82
-2337.37
2387.42
10362.3
-691.538
7145.16
-322.84
-6189.35
721.663
776.148
10482.4
-4687.38
-221.106
5842.59
-2035.9
7664.93
2151.58
3397.88
19142.2
-18300.4
9328.38
4389.35
5907.01
-3635.45
-4609.71
-2203.46
3535.67
2024.64
-1916.13
7070.67
-628.102
2108.21
3132.23
6065.51
-7408.94
16544.2
-2277.12
-238.388
4624.07
2303.03
-216.315
2214
-6020.41
11995.5
-8656.81
13773.4
1116.99
-4283.33
10134.9
2961.61
-4073.08
-1674.74
2645.69
4387.78
-1919.74
-270.289
10806
-1949.03
-5022.22
8016.83
6297.2
5845.16
-4908.37
-5969.83
-3639.77
4996.76
-5689.29
-16061
1603.21
7273.41
8760.95
-7530.26
7710.18
1654.4
-4460.94
4799.42
3009.31
-4344.46
-4396.65
-8950.72
-9462.08
-1337.19
-5858.22
3578.59
-14663.9
-7130.9
4548.76
10144.9
4479.43
562.625
5756.9
4089.22
21127.1
-1230.36
-2459.1
5545.41
-3114.07
-2045.68
6118.64
1827.16
-12134.2
-3988.97
-3845.73
-1711.6
-10272.3
13822.7
-91.8194
-10698.5
-7636.88
771.508
4764.81
-570.395
-4455.69
9031.71
-10230.6
-4064.07
9772.57
-3788.89
2169.11
7618.35
900.504
663.148
12262.8
-784.726
-4406.65
-80.8148
2174.43
1268.14
474.532
11075.6
-3764.82
3791.32
-2696.53
2762.94
10159.9
-348.338
10128.7
-313.122
9034.18
-2549.92
-837.015
-4906.47
-2434.19
-9369.88
-6449.18
-10318.9
6173.74
12608.9
-647.677
-5601.76
539.008
6673.56
5309.97
20570.9
14665.3
-1224.42
-1273.44
13538.4
-2460.38
-6079.42
-6668.58
-4054.87
1518.26
732.556
-153.604
1047.93
6543.3
-6108.51
-6077.05
13612
4327.5
8283.65
-12130.7
8525.67
-2767.27
774.509
-3775.37
-13452.8
3148.15
-1533.57
1014.83
6211
6483.09
3165.74
13077.6
-1130.54
-8376.42
10597.9
2185.19
5970.46
-1132.82
-5393.3
8364.95
-12067.5
1389.03
881.337
-10041.2
509.338
-5401.9
-1132.12
-4707.84
-4270.22
-8553.51
-7050.51
-2736.39
9838.58
-8220.54
1454.35
-4654.37
2166.88
2469.74
-3838.24
-6298.85
4207.29
4483.79
594.217
3050.78
-7086.95
-3967.51
6368.56
-4585.84
-4390.12
3084.45
-4954.33
-7499.58
-6618.25
8497.38
-1502.81
-520.341
-5673.55
-604.398
402.041
10302.3
-4207.64
6676.34
9161.88
9974.49
-5692.52
1929.47
6070.83
-5033.73
-1326.54
-182.143
4558.78
6859.16
-2339.73
-2779.13
-1934.92
-3937.01
-274.1
6858.57
3345.05
2858.34
-129.854
1518.29
178.921
-10288.7
2139.18
-2663.78
-1790.82
-2813.26
7585.31
-4144.2
6866.38
-10032
8404.83
721.609
-6162.04
2619.98
12059.4
6694.01
4679.89
-1930.63
3410.98
-686.332
-1679.49
6557.13
5748.88
-3436.28
-6993.83
11424.1
-9995.69
3964.46
-11457.6
-14935.7
-2149.62
2455.63
-9997.6
4314.88
-5630.33
1591.03
-8305.48
2761.42
8961.65
-5460.12
6928.67
4829.49
2587.74
5367.94
329.474
3779.9
-2944.31
-7008.72
1649.63
988.729
-2275.07
3909
1772.79
-5569.59
-840.593
482.259
2150.11
11824
-2208
-14306.6
4602.54
11919.1
18361.9
6931.79
3020.35
-12549.3
972.896
-3933.65
-7485.35
3408.05
2273.59
4074.52
-4307.91
5616.69
-6856.92
15856
-1528.41
2352.6
5689.43
12929.8
308.436
-2228.18
13421.3
19304.6
-4109.33
-4969.22
-4445.12
14014.4
-368.704
6662.19
17029.2
-4330.22
308.202
-943.79
-3336.34
2042.41
-3729.81
-10996.2
9981.34
-2338.97
7820.74
-2790.28
2809.05
-4568.76
-13739
-1728.37
8504.81
9284.28
5582.57
-7456.33
-8637.93
-10137.5
1682.38
-4353.76
-1117.74
6002.04
-3076.73
-1923.23
10588.3
563.191
6283.04
1279.18
-18030.6
887.773
8395.97
5085.11
-10428.9
-5495.5
-14959.3
-3278.34
-11966.3
-3414.39
-1377.66
180.137
-10144.8
-6016.63
4440.91
10387.3
8836.85
-8387.3
4348.46
-3857.85
-11611.3
-481.525
21158.4
-640.308
-9449.36
-1476.96
-3795.05
-5508.43
-4001.3
-7948.35
18792.9
4153.52
3618.4
6258.33
3744.91
-5730.74
-12794.5
3288.25
11964.5
8271.71
-14288.5
6425.6
-24795.8
-10327.5
5625.86
-1517.33
-4708.9
-999.487
-3427.38
-4637.99
-4783.42
7373.84
-2190.62
4845.47
450.563
-13215.2
910.794
2212.47
-12267.3
-3366.48
7031.66
8041.02
8967.83
-7651.68
13323.2
-4403.81
-10594.9
-2161.29
9311.41
4648.43
3794.45
-13308.8
-6726.63
-5997.89
5785.17
-9907.99
5805.26
6647.87
-10004.9
1576.88
8903.46
8553.96
-7703.1
-3724.64
2015.55
-972.41
3242.91
5823.43
-16555.3
-898.336
2942.41
-11830.4
-11509.2
3406.38
-7888.66
-3822.04
10092.9
-12342.6
4135.8
-2085.57
-7421.1
2053.73
4470.53
-10130.3
6105.81
-838.258
923.771
12880.8
-2086.1
1762.77
3010.42
8475.63
5961.61
5523.58
6055.72
3116.34
2214.83
2036.72
-3778.94
1171.95
-11476.8
-6319.33
-999.021
-835.768
-1171.92
351.318
-6317.27
-7986.47
5813.58
393.799
-137.991
7307.07
2390.62
-2719.39
6574.97
-1626.71
-188.76
8906.07
2345.18
-3647.89
862.994
7643.22
6942.77
2413.42
9045.62
1509.75
8439.8
6003.83
-1160.29
3808.16
8747.47
452.402
507.607
346.527
-2586.9
3972.43
-14228.6
-11312.4
-314.804
-2755.39
-8167.06
-6376.32
-172.495
1063.32
-8115.36
1001.29
579.085
-3003.4
4447.88
8306.83
1388.86
3488.15
7875.45
-4086.4
-1862.88
9667.47
-9509.56
-7475.39
473.843
3392.63
5681.37
-2716.68
-6865.24
-3133.86
-8081.61
-5261.83
9374.7
4404.25
-888.055
-3608.79
2044.21
4650.55
2329.18
2899.75
-8171.28
-4860.93
4282.11
16724.2
-11351.7
-9331.37
14254
-6022.32
-3451.96
-3931.11
-11846.4
2984.44
11967.2
2510.06
-6223.2
2032.6
-6012.39
-9253.99
4658.35
5031.06
3446.5
-37.3148
-1222.46
-2753.1
853.254
-4629
-4224.64
9801.83
-7467.68
5627.41
776.981
-5287.3
1634.01
7162.8
-7673.77
6098.95
5754.33
-16727.4
-3351.97
5769.18
-266.376
-1010.75
3967.35
-6571.01
-10845.3
4347.2
-852.79
-2426.12
2157.83
-2855.05
7936.79
2486.84
-12502.4
-2213.03
-2233.34
2874.02
-4335.24
6852.59
4983.78
-6800.42
4708.61
-2695.21
-9525.54
5541.34
21096.8
-18306.2
2793.93
3832.76
104.317
3048.29
1328.08
-6105.85
14082.5
8216.32
-3790.6
104.606
-1254.63
22166.5
-4406.09
-5078.2
-503.587
2578.72
4204.37
-12135.7
-680.338
6643.16
2368.12
-5623.95
-3718.61
7577.9
14414.5
-880.678
-16790.5
5565.86
2613.96
3377.43
-1177.07
-7433.66
-12401.4
-404.255
1207.45
-109.75
-4247.43
-10989.4
1825.57
6002.59
9059.95
8214.65
68.7239
-5981.64
-8944.67
-165.124
11417.9
5327.79
-7109.01
-1398.04
-12095.4
-3544.46
17319.4
-4509.86
-17083.2
103.365
8486.63
4625.19
11694.5
-13960.6
4537.51
-9550.9
-3245.3
1867.27
-3978.53
-2774.35
7816.78
-9967.77
3755.12
312.627
5869.11
3563.75
-12298.8
-4561.35
-4441.45
1306.98
-352.807
-11626.8
10297.2
-2406.09
3357.69
-821.311
-10942.6
12468.9
6428.59
3512.88
17640.1
761.979
3749.84
3029.2
-1099.32
-1957.73
1214.58
12051.5
-2898.19
836.958
-5374.32
16039.8
-2632.04
-11231.9
5943.07
5385.88
-639.163
8939.45
4552.02
8319.04
1874.2
3393.9
9668.07
-7063.77
5116.03
6732.66
-1768.08
2554.36
-96.2625
9637.91
-3593
-13020.6
-6281.02
-2248.33
-675.693
-4969.77
966.735
3187.1
-3736.39
426.036
-11915.4
2237.97
-6467.82
-7024.71
18757
-5031.85
1867.61
5837.66
-1907.65
5843.87
-15405.5
-1026.83
10976.8
-4174.44
3549.63
1564.41
9182.26
-10327
-11102.7
4912.46
3812.35
-154.916
-1249.57
8344.14
14365
-510.727
-2865.57
-5445.86
-1579.52
-8889.88
-6201.87
3280.81
726.958
-2409.61
-10632.3
-6386.6
-2053.69
-3143.26
-3393.36
7830.25
9584.33
13841.1
-309.204
6530.21
-3282.71
1321.03
5734.15
-7150.67
-1556.45
2965.62
5096.47
2079.9
-19802.4
-481.981
2153.66
-5890.63
-850.033
-3988.07
2539.91
-2147.56
-12375.5
-146.246
297.964
556.126
-808.689
154.212
-5102.05
-3628.39
-233.153
-8167.4
-12598.3
-10375.8
2206.41
1106
-12136.9
-4985.21
-3386.11
-2114.29
7862.74
-1644.02
8580.37
-4634.57
2415.54
1809.07
1364.41
-14154.8
953.763
6482.67
-598.833
-11471.5
6717.39
-10526.6
-5692.13
15421.7
5632.59
5827.23
-2455.4
-669.633
5866.72
1950.79
-7968.87
3352.81
3099.24
9588.85
-8666.87
824.769
-1491.08
-4109.4
-9069.65
17849.9
11758.9
-2591.61
1671.17
184.475
9779.29
7189.75
-6907.65
-3586.4
10381.4
-3410.58
9548.21
-3297.87
-202.965
970.086
720.444
-11890.5
-1546.86
7905.74
-4831.36
9097.08
-1242.36
-11423.3
3000.07
-6533.34
-15001.6
3916.96
-5958.77
1069.05
12429.8
-5937.93
-4744.38
8129.97
-15489.8
11850
14113.4
12216.9
-3897.64
4397.98
-63.7154
3042.38
5805.77
-6932.23
-8366.65
-5575.54
-5377.93
6710.14
4039.57
-10833.6
-6973.74
8466.87
-4811.42
7018.73
-11404.2
-2546.34
10294.5
2155.7
520.094
-9261.79
-4892.76
-11017.7
-2278.23
-5955.77
17740.9
-7501.05
3684.24
1679.17
2753.44
-4216.98
-1742.77
2463.8
2647.41
4146.11
-11994.3
991.325
-9533.88
-3346.69
-4405.98
-4246.55
352.61
-4696.01
2437.42
4403.31
3144.36
-7909.46
-6744.88
5641.97
-9584.94
2618.13
-4089.53
-16222.8
-6396.1
-4160.6
8273.25
-6712.64
-3441.8
2616.98
-922.827
3014.14
825.295
13601.9
2677.89
-5169.9
18173.9
6885.19
-4444.16
771.217
-1663.47
-3574.31
9810.03
96.3759
4438.82
4516.31
-2684.09
-7986.2
66.5533
5376.56
580.14
4798.63
-3817.44
8644.03
6873.7
-8423.44
-4204.86
-3002.69
1874.3
-9605.41
-177.722
106.148
2079.92
-2699.34
-8608.93
-7279.37
5651.75
-11752.2
-256.577
13437.9
-4590.75
4283.23
9947.42
122.061
-2513.48
-5374.63
-4313.34
8452.91
-6551.75
10481.8
9490.82
-4436.84
-15984.8
2156.66
-10018.9
-6097.4
3732.56
4024.89
-403.407
-2419.76
-6631.23
-5544.51
-536.721
-10836
859.391
7739.16
5383.46
7538.91
7128.38
-7627.32
9879
-1348.65
1000.17
15160.4
10592.6
292.243
-2514.76
-61.7664
-1048.82
9849.45
-5289.26
-9948.01
-499.962
-7644.04
3779.59
2657.22
-8616.71
-2507.4
-4026.78
-493.8
6125.26
-9930.54
958.537
5764.68
-5050.18
1469.82
19368.8
-4888.77
-11036.4
-4070.79
-179.521
8798.73
1309.57
-4228.69
748.578
-3970.37
-2709.85
9124.14
-1491.43
-5365.94
3611.83
6521.29
1827.27
-1119.69
1055.45
5559.43
-4567.48
-3730.8
-3695.3
-4329.67
-14065.5
3995.85
-6105.07
-11053.5
-11644.8
2607.75
-17544.5
-884.063
2875.03
-543.319
13677
-5484.89
2839.57
-2933.52
11161.7
1999.5
1828.88
7457.57
-4329.41
-2683.13
918.961
-1138.06
-10037.6
-7605.2
-6317.67
776.542
-565.697
-5071.77
-13568.9
938.99
7972.83
-4265.29
-5410.96
-4855.78
-1063.57
4756.15
-2147.92
2029.65
9525.6
-9341.89
430.705
5681.14
1587.55
-13335.5
4713.22
2905.32
9973.85
13651.1
-14274.4
-13319.8
766.096
-1783.98
-996.399
1538.55
3770.68
-3955.96
-2389.37
-6369.61
3960.18
-2433.73
-4598.53
1794.72
10415.2
10274.9
3200
-209.342
-4602.08
7331.4
-670.211
-4101.22
7755.05
8060.21
-845.918
1362.58
-10049.2
-1249.07
10477.5
589.577
-6060.13
1496.87
7006.64
3761.71
702.059
-1426.69
6561.29
338.353
-11581
4171.52
6125.09
-477.671
-7422.44
-6786.94
-4145.95
7193.34
-5612.28
-12942.7
3856.72
-505.988
-8012.28
-8617.18
18234.8
3882.05
58.8411
1817.97
-8881.32
7378.28
8643.27
2661.69
2580.85
3697.19
-2002.58
-9174.32
5668.23
-1779.99
-7178.44
-5768.36
-5381.69
1670.08
15279.6
-16717
-2334.47
4788.25
-256.977
3167.1
6821.08
-4629.38
-1169.24
-340.322
11133.3
-3086.58
4806.81
8307.47
508.193
5622.2
12532.3
-977.85
8169.41
8305.74
3015.7
6897.49
3026.65
-2972.88
-8236.7
10464.3
-1524.63
-5399.25
1294.97
1249.26
-9272.66
1173.65
5441.38
10857.9
2963.55
532.346
5322.76
6751.5
9895.98
-1933.53
12.6822
4704.98
41.5878
3753.95
1985.52
-6633.33
-5034.56
-743.147
-2253.41
-6707.13
4438.46
-9743.22
-5493.05
4862.32
-8127.88
3983.38
-9249.26
-3265.39
2514.14
-11628.8
1512.58
-5721.9
1824.27
-801.692
-2576.05
7615.27
-3461.44
-10695.3
381.292
6670.49
12280.5
5210.23
-1647.89
3837.15
-1260.35
3037.67
-1298.47
-2558.8
-1591.22
6029.86
4857.34
6462.51
-6559.76
-5283.9
284.076
484.519
3790.07
12610
7822.48
-1664.72
-420.502
661.091
-14.0292
1587.32
6805.13
-4753.88
1274.22
9690.57
4022.36
-8351.04
11354.7
-3360.37
4344.96
-5615.71
963.514
-2041.54
1728.64
1986.63
-14095
-5558.15
-2995.59
-1892.61
-11527.1
3464.7
-383.17
560.658
794.641
16991.2
-4772.1
-3158.71
564.091
4605.93
4493.56
-39.8972
5844.95
1616.22
-5664.08
-5957.58
2396.03
4445.81
-5848.45
4030.72
2116.82
10454.2
-262.338
6507.33
3894.96
6133.95
9301.65
7320.82
-12965
-971.742
-2646.63
-340.516
-8813.85
602.462
5267.38
-19460.1
-2537.46
10573.4
-5622.76
423.848
663.343
5591.99
9517.59
9661.55
401.845
7476.07
-4294.84
3050.85
1691.9
-10721.7
6385.1
-479.735
-8645.64
5678.15
8363.96
-1739.17
1594.22
5033.98
7363.4
-740.846
12918.4
-3594
2672.67
-680.579
-89.4573
-994.115
-10524.9
-15708.5
-3314.38
-8050.89
-8654.15
11717.4
4082.08
-8017.32
2734.56
7947.29
-11469.8
882.829
3938.96
-1874.09
12867
11455.5
-3114.18
6642.1
-846.742
-4713.91
1406.79
14672.3
17397.5
16065.7
-4111.19
13829
316.213
-13349.6
-7318.2
4071.23
-7795.14
-1566.53
3548.35
-2311.34
4094.16
-15960.4
-4137.78
-4692.75
-307.897
1509.96
279.878
8023.58
1907.99
-15790.7
-2770.33
-10851.7
-5436.82
-13863.7
3183.57
10098
5857.88
6540.96
1620.92
261.133
2302.73
-439.991
276.951
15147.9
-1104.34
20271.8
1043.67
-6417.48
1818.33
435.685
-9249.98
16752.6
11774.8
4809.27
13997
-6500.68
6179.77
-2561.23
3357.65
-11917.9
67.8271
-811.587
-499.574
-1743.65
-365.395
-9939.27
-4272.43
-4205.51
-4383.52
-6504.39
396.956
-8080.83
8842.26
4408.98
-8734.53
-2279.32
924.576
-5941.23
-5507.23
7176.16
12796
-1885.12
-8263.46
1721.23
7020.06
2839.72
3033.77
-7856.15
2109.94
5565.06
-7125.93
-14262.1
5250.54
8767.55
-15166.5
6856.63
8187.83
-15700.9
3096.72
-7674.89
-3239.04
3758.01
17643.8
541.142
-918.157
-3733.48
-5050.32
-6807.97
-2587.58
2528.06
2019.66
825.303
442.129
4545.76
-10191.2
-6680.94
4087.77
1977.74
-1869.47
17597.2
-4092.07
9577.52
9517.83
-18232.1
1583.55
3293.92
-3585.48
1287.96
-1121.99
7264.82
-8210.64
-959.617
-9746.62
-1800.26
-3704.19
-3554.79
5640.76
-15261
5983.7
4551.31
-2199
-9928.81
-0.980688
-3222.76
1120.06
4559.8
3724.98
-5640.71
9000.02
-2293.82
-647.651
6229.79
883.87
-2320.95
4073.89
-11531.3
12022.1
3927.59
-1572.53
13391.5
-10533
-2938.99
2286.92
-2420.13
-3782.13
5929.06
-2092.66
7396.56
-3936.38
-6482.82
-2077.82
-876.495
-2903.39
-1680.19
3000.9
6844.32
16057.8
-3635.5
6264.62
-8077.62
-5053.57
9019.96
-1749.84
6849.42
11447.1
8505.04
-1981.76
-11543.1
-6009.21
10159
-6266.58
8636.36
3875.91
8365.2
-3532.08
-8891.79
-2196.09
6697.4
-10669.8
6188.82
4681.68
-1776.43
4301.59
-5821
-2492.95
6355.27
4846.61
-7686.17
2738.4
14916.1
-6143.26
-2117.12
-757.728
9634.46
13824.7
1150.86
1038.54
-2415.06
6866.62
-9331.32
3177.95
1830.76
1190.17
11.4932
-733.881
-3530.88
-4849.7
-2110.95
-202.398
-9280.2
10096.2
-9034.61
-9672.06
1635.99
-6018.14
-8404.34
-5471.54
-6157.67
-3619.54
1846.67
-8285.03
5322.44
20278.7
-5136.82
-1347.74
17501.8
1102.31
5413.42
6069.96
2813.45
3896.76
23403.5
-1322.8
-5163.89
-4409.75
7216.01
1709.7
-8476.06
20701.7
4389.1
7222.32
-3087.71
-10595
8154.22
5245.54
-3822.27
-8582.76
5661.55
1113.63
1847.63
-6939.88
-9722.76
1894.04
-7208.52
-2831.54
10276.5
-473.317
258.533
858.249
5817.02
4746.33
711.074
8718.74
-11223.1
5405.71
4805.32
4220.21
1428.74
4361.24
-4220.59
-7378.39
-2360.9
-3995.4
-880.501
-4388.42
1489.87
8952.57
718.433
-13971.5
-12555.1
-803.401
-10571.2
6044.23
-9106.19
2134.04
4120.58
-7807.26
-9206.52
-789.465
2714.11
-8717.12
13732.4
18227.3
2139.25
-3922.42
9074.72
421.582
-9912.2
2507.2
15242.8
-5380.67
818.088
1593.81
-9615.65
17165.4
-9110.18
-8800.57
-4108.65
-1317.49
10273.3
9288.83
-4938.02
1521.75
11535.2
-6781.02
-2861.21
-2277
-4285.22
-8002.82
-5407
1253.34
6097.44
-17316.3
-8498.64
1034.71
-10299.8
9316.02
6030.96
-5300.07
9790.45
1491.14
6124.79
3004.17
-3910.32
-3587.86
3928.24
11052
-4236.21
-475.462
299.638
-4598.86
982.748
3675.87
-6933.62
1040.83
4488.31
-4271.65
5165.67
4705.17
846.857
-5164.38
-1163.22
-6966.41
14713.7
-12312.5
-10002.5
3283.16
-6350.4
-7366.79
-1833.28
-6600.8
-6818.31
-2013.73
-10612.6
21548
-4780.43
2367.61
658.755
8605.47
3872.61
3588.08
5605.21
-4012.54
4969.86
-5124.48
9641.87
-9283.29
4438.65
-3477.97
-2004.65
7014.32
-5004.57
14995.7
-3379.36
-7348.01
9200.62
10572.8
9273.38
-12838.2
-3001.7
1017.15
1006.95
-10589.3
7246.74
-5755.46
-203.353
-3778.93
2130.4
-1784.1
-6009.72
5228.45
-6115.06
2689.45
6865.07
15341.1
-6350.88
-4834.45
-282.313
2148.94
4196.21
23.6087
4869.87
-2017.34
-1107.32
3629.94
-4478.24
-11133
9249.78
-16028.3
-5411.94
13709.8
-3578.15
1611.21
-8587.01
-11208.1
3386.75
-3133.83
-1017.67
-7127.91
760.367
-8453.45
3422
9735.23
-6984.24
-3648
4188.54
185.627
3696.17
5227.67
7507.82
-8816.42
-6700.12
-8233.73
-14606
9748.03
-9547.53
-4985.46
-13271.7
-1677.45
-9382.7
552.066
-8063.71
71.9065
-3749.2
-10174.2
-8473.37
5786.63
13461.4
-3363.81
5835.84
-11615.7
-3127.84
-15087.5
1664.57
6719.65
6997.62
-2147.05
10375.7
4225.87
-21929
-3134.22
2601.73
5828.1
1995.42
13117.2
6077.77
-4675.06
-9639.07
-5717.14
10458.2
4526.58
15211.2
7216.38
7725.97
5259.6
2473
13653.9
-635.048
14154.9
1930.29
5870.33
-4360.52
7426
-340.809
10793.1
5041.62
1376.54
-6628.08
5455.77
7141.48
-5308.58
10187.8
4711.56
8199.16
-6603.16
-15557
-2015.01
-540.069
-10727.3
1917.47
-5160.95
3466.35
-4706.37
-12631.4
-2047.71
7342.19
222.865
-6951.05
6580.15
3498.13
-5931.52
-8689.33
8031.38
1982.07
-10251.9
4259.95
-4516.86
-15939.8
3275.14
-2989.95
5576.91
-4711.76
-4951.81
2383.07
-9700.14
-12636.2
6111.63
2702.29
-2211.23
5422.15
-3240.26
3959.43
-2406.82
-1101.46
5081.93
5943.28
2237.15
-7264.86
7508.57
8741.95
575.735
7424.59
-7743.7
297.309
431.958
-519.753
7551.02
8504.88
624.826
-3502.53
-6482.81
-737.298
-14613.6
11660.1
-1998.11
675.886
808.211
6109.22
-4560.53
5737.73
17581.4
6572.83
6544.58
4830.67
-2161.75
3672.2
-3088.38
1335.12
863.969
-5352.93
-677.668
8292.49
-2455.47
-9658.37
6294.55
-4487.82
3719.76
7890
5287.51
-624.725
8911.59
51.9601
-2497.71
-4572.34
1820.94
4394
-4368.5
-6598.95
1361.11
-4891.16
-4191.07
-2746.87
-2638.27
3651.43
-1852.32
-4045.8
1836.93
12008.7
1126.29
3392.26
-2067.33
-7105.48
-354.615
10592.1
-10283.7
-7603.66
-28.8167
-5119.28
-6927.04
-16114.3
3412.81
-5781.78
-6440.14
-2097.5
10598.5
-1527.34
-888.539
-5746.87
11610.7
-5310.31
8760.65
496.353
-1072.28
3368.77
-6503.28
-5207.12
-3297.08
2844.75
-5781.61
-819.232
2409.63
824.601
-3699.55
380.491
221.99
9235.5
4810.11
1465.88
-100.544
3966.38
3187.88
-4590.91
-6707.05
1288.63
7432
-8866.02
-1856.1
-2719.53
-948.043
-3257.39
5774.28
-5845.12
9622.31
5610.31
-686.05
9630.36
-3889.99
1257.05
8728.47
-5014.97
3696.06
-818.192
-2508.81
3554.85
-13855.6
9674.1
3439.68
1004.49
-8052.08
-681.442
5209.97
2908.47
2415.76
1554.72
-8236.06
-1361.1
-4543.98
-59.8537
7993.35
3990.78
1769.57
402.693
127.268
-2557.02
-5974.88
2550.81
-2639.32
-2341.1
3028.5
-12355.3
-3094.24
-5426.77
647.024
-6381.18
-10041.5
15730.7
-7714.59
-2373.46
-630.445
3938.93
-13203
7285.52
6933.84
1592.38
-11334.2
-3553.81
7559.53
-344.341
-2079.77
806.578
8471.96
-5363.46
-2139.86
-6143.92
19323.9
12056.3
-9794.18
1284.52
3819.63
-5852.64
11307.7
-2603.19
5057.19
-1403.3
13513.1
-4948.35
-15452.8
11645.1
3057.51
-428.207
-1296.74
3825.77
5828.05
-4539.5
-12572.3
1310.39
1428.66
5234.25
698.849
-276.246
2295.1
-7487.96
9739.91
904.502
-712.889
-1801.66
18745
-3831.37
-2580.92
1384.78
-5608.13
9057.04
880.363
1034.92
-4561.42
7129.26
1462.37
4932.82
-2468.12
9619.08
4619.38
-2531.12
530.853
1674.36
13874.9
-2084.43
-2739.41
-8665.57
-4662.04
10833.5
-7969.85
-4464.59
479.038
-1858.73
436.206
-10237.2
2297.91
-997.363
2943.97
2527.31
20.5799
-5012
13370.4
-2029.35
-6713.25
1225.77
4055.98
5536.48
3509.06
-8610.83
-8866.47
11448.1
-17239.9
5472.08
5072.77
-10030.7
-2170.16
-5447.03
-3125.75
-762.968
11620.2
-4354.98
939.727
357.105
-746.921
-1869.24
3722.92
-19087.4
-3489.29
7986.91
1218.23
6516.87
-8513.87
-2779.03
8422.58
-3912.62
-6256.78
2938.44
-5852.23
2483.23
-5012.8
-3249.99
-3480.36
-8333.09
9006
-12404.3
2769.34
9973.9
-3557.1
-950.607
4130.6
-42.5967
10203.6
264.413
-2330.6
2793.51
3469.28
9230.55
-1225.45
-695.702
1815.98
280.145
10715.8
1745.58
-7335.53
-1039.71
-2610.05
3114.29
6848.43
-5427.54
-14276.8
9840.5
-1036.22
-12465
986.698
2109.95
-1611.08
-11382.4
-869.564
2945.24
627.347
-8939.98
-13648.6
-2011.79
3559.92
5719.06
-13932.2
-3160.84
8352.87
-446.376
-6915.99
3926.38
438.319
5096.71
4715.07
-2418.49
679.883
10007.3
826.346
-3520.17
1963.23
-2262.98
11717.3
-3310.63
959.023
-4392.16
2354.47
2146.32
-1650.3
-5346.84
4812.51
-3195.89
-3644.34
1801.74
5703.27
4308.6
-897.3
-0.984285
7526.33
2658.82
10661.3
-312.011
-351.67
16107.2
5754.2
159.835
-1424.19
9530.64
-6822.27
-5091.77
13945.3
-1740.75
-5028.22
-7293.88
-3022.7
4920.28
-6199.3
-184.068
-3101.01
-6138.61
2285.31
11838.8
-2140.8
-5688.02
769.2
11201.1
-6614.65
-7825.81
10771.9
-6096.23
-4465.32
-4484.26
-1525.04
-7555.44
16664.9
-1229.97
-10783.4
-1321.24
-8553.23
-8634.02
-5616.84
-4091.4
-3406.4
-2186.43
-7307.58
-14098
-9062.78
1442.54
216.916
5064.73
-8182.1
7288.43
5254.51
-14361.2
-10080.5
8253.14
-1134.29
923.343
-3320.53
-1782.18
1455.67
-8316.9
-3207.01
14393.1
-1254.09
-4779.65
3025.93
2223.39
40.7497
11147.3
3704.67
-5472.65
-4930.18
-4322.58
-2503.62
-5803.11
4469.18
-3951.44
16456.3
-5068.78
-12919.2
-6161.66
8550.02
-2032.37
12783.7
15298
-2535.28
2402.21
-3870.2
1819.85
-504.151
6673.41
5741.43
4567.99
1100.09
5781.17
-8065.19
-589.346
-255.931
5670.74
3870.12
-2962.82
3868.2
-5848.35
-6977.96
9868.29
3540.24
-2950.78
-5581.81
-6583.41
-3594.78
4563.64
869.844
-4370.13
1905.74
1133.8
-21765.6
-6651.86
9731.12
808.573
5074.05
5038.8
-2873.82
1535.3
-3717.4
487.068
5601.21
10768.8
1128.93
-3135.2
-3048.59
-14832.2
232.697
-7745.62
-565.588
1362.93
-6605.5
3986.28
-6098.56
-4406.87
5125.73
7545.94
9070.87
8482.79
4254.82
1911.27
-2619.38
1231.38
5484.54
6956.82
553.306
-2437.75
-3807.32
-5726.63
5664.9
7931.33
4896.91
-5084.31
507.239
5995.61
3475.29
-1289.65
-2573.03
-1998.53
5498.88
1537.4
-2979.16
1031.77
2804.21
1278.84
-5188.73
2693.63
2346.92
-1001.36
1117.2
1999.25
-8511.31
-655.927
-10276.1
-2836.4
6313.18
-2529.33
-1373.11
-1117.36
9123.39
-9835.06
548.953
2963.15
2232.44
-3491.44
16582.6
-3095.39
-6872.3
625.29
-1556.81
4320.58
-3531.76
875.006
929.852
1194.05
-6426.13
-1263.13
-2758.86
10945.5
-1407.14
-7980.33
7704.07
-3465.25
-2468.54
-3083.16
263.266
866.814
465.159
-4166.07
4642.83
-4746.02
-2821.98
-2326.47
-5384.18
8622.08
16272.7
-812.591
719.018
-3032.62
-4200.24
6495.5
425.935
3600.8
57.8577
-5756.05
-8930.93
13147.6
-7875.31
-8044.55
-9047.66
12719.7
3996.21
4345.11
8144.42
4888.46
-6282.81
-1911.14
10280.1
78.4081
5342.46
2827.51
-6602.05
-5943.06
-381.896
6183.85
993.004
-6794.78
5633.44
4775.17
1186.63
336.767
10980.7
-2931.2
10330.3
-3876.07
1344.91
-2322.83
3626.29
-1618.04
-8157.66
1776.64
9931.74
1780
-9873.52
2610.23
-7551.95
5215.58
1556.2
-1123.01
172.552
-49.0057
-2324.36
-7187.65
-4715.19
-1548.88
-3433.04
-2364.42
-990.458
-9789.2
5532.1
-2710.16
-11378.4
4916.13
-5967.46
-263.171
-8084.56
4421.85
-6155.69
-6308.47
3881.7
-6735.12
11645.1
4372.91
-1292.09
-3969.3
2000.02
-4632.83
-5907.04
-2833.51
-7245.45
11407.5
-3680.72
-6181.22
-3523.48
7389.5
-8955.53
1375.73
9710.39
-266.512
-3319.04
7789.22
5284.4
2665.8
-5132.89
4598.45
-7451.85
3093.9
4488.85
-11083.8
-6889.54
-240.325
10553.3
-15846.9
-12970
2638.01
-3089.36
133.18
5201.67
3978.96
1473.41
-6206.95
667.95
-1208.24
-3393.17
9806.66
-1417.94
-9384.39
771.423
-12295
-9234.12
-1646.45
-14168.4
6450.5
-3270.11
2873.49
-2302.35
9688.33
-17268
3403.32
3527.15
1408.5
-2392.42
-1323.02
-1375.08
7245.68
-3644.26
421.531
8196.07
7502.49
-4573.51
2640.12
4973.03
-11507.2
11440.5
1347.71
3163.33
8833.72
4581.95
-3672.35
12418.9
-4742.72
-6699.54
4993.32
6627.93
8037.17
3653.1
-8531.74
6646.3
3.12045
-7616.32
-11864.4
11215.1
9821.54
2827.3
-6224.32
-2264.71
2069.04
5980.66
6781.06
8975.27
-3904.88
6593.71
5161.31
6642.38
-12762.1
3146.39
9475.56
8204.4
2088.03
5115.5
3215.53
5542.19
-8618.35
1090.93
-4605.07
11977.4
-1848.21
-3998.29
-7162.76
-4681.54
9800.85
2099.59
-505.95
2547.85
-3704.19
6125.02
-1321.5
-4273.41
3944.84
5806.08
8046.05
2533.51
-6564.88
-5928.11
10406.8
818.117
3661.51
1118.61
8655.48
5846.09
-1694.62
-8969.78
6267.1
10314.4
-5441.45
-684.556
2952.83
3623.22
-3857.05
-973.158
750.859
4290.48
12028.4
-2338.12
5844.13
-6196.7
862.851
6006.44
-7940.8
457.851
7535.53
1403.38
-2706.06
4227.71
-7588.24
4068.6
4704.47
-1020.09
-1632.38
6178.92
6532.65
-8795.3
-4335.94
-1267.45
-6669.12
-5560.83
-4509.87
-4327.8
11791.7
-2106.44
-4395.64
2947.52
-11030
-912.414
12995.6
1570.59
1142.91
-4633.51
-3299.02
5664.48
-5173.98
-10835.4
2283.87
-874.745
-9968.01
16955.5
5010.08
2876.78
-3766.5
740.064
5627.33
11993.2
14298.5
-832.419
-7868.82
7522.82
7258.05
-5654.22
-3614.27
-11244.6
-6772.92
-3848.32
-1771.61
2748.57
-6437.06
-10329.5
1008.18
-1987.48
8762.5
-418.419
3755.18
-2130.32
772.62
1517.26
-980.529
-5000
-2758.75
-9365.73
2831.41
328.398
-11833.9
-679.09
3765.38
3427.05
-2630.59
14101.5
1807.49
-2004.31
2788.76
-5186.15
782.294
763.994
856.58
-9206.15
-6100.59
-1286.76
-12057.5
-10368
-1235.26
10586.3
9748.88
-4936.49
630.362
-129.093
1696.85
-7760.5
1109.27
-1202.47
-1234.49
1616.83
1542.41
-3124.48
-3484.03
-1215.27
-2372.35
2779.34
12671.8
-4007.45
350.298
-3157.05
2970.48
331.428
3160.42
10734
-5287.23
2824.72
-3722
-5614.37
4583.01
5869.91
3526.58
-623.194
6654.96
-4617.75
-5810.31
-5813.13
6534.12
-377.006
1890.66
1515.54
-3309.7
-8298.2
-7776.51
-4900.5
957.339
3464.11
1601.29
13161.2
-11297.7
-6239.62
5622.91
-1742.35
4437.19
7451.77
6873.4
-8508.1
1770.12
5496.22
-4664.61
-3165.96
-2491.21
4004.38
-2945.69
-2641.19
12618.3
-2446.7
-4521.52
8455.14
-901.547
715.595
9574.69
4067.48
-4531.14
5857.09
-524.454
5812.86
-13929.7
-5660.89
-4573.12
-4692.44
4319.73
-5787.48
3985.31
-5041.39
-2014.5
-126.927
2671.16
4130.65
10435.5
7118.85
-11076.4
835.865
14430.3
-10680.4
-3443.74
-9827.09
3614.66
-3177.73
-7930.69
2416.35
-6333.98
-1904.34
1586.98
-5016.75
992.202
3406.24
9717.62
-4222.79
-4894.56
12637.2
5551.93
-8514.57
-97.9455
5543.53
4524.35
5054.23
-3242.45
5178.49
-4569.95
2409.5
-2800.34
4045.35
5607.84
2430.25
-8332.41
3230.7
-5207.55
-704.998
-14093.5
-3128.64
82.305
146.346
4241.55
-3618.15
-7165.47
4782.13
-11917.7
-5834.29
4150.15
5083.45
522.124
-2607.03
-2445.83
-3694.86
7099.29
-13383.4
5649.75
9970.48
-5840.58
-1974.05
-9432.15
3908.53
-1024.59
-2886.24
-9810.91
3411.6
2447.31
-870.996
-3118.05
216.307
-7610.77
8772.77
7701
-7778.13
8161.21
397.103
-7521.45
-377.202
-1752.69
3825.13
-647.996
-6510.47
1892.56
700.868
6547.77
4901.13
1043.11
1273.63
3910.11
5534.05
1532.9
13076.5
10456.1
-8281.06
3499.69
3035.59
1191.29
-2123.36
1353.3
1896.17
-1176.35
-202.484
11260.4
-19036
5534.89
-8702.55
-13472.2
9549.15
7575.53
197.864
-5017.35
-4384.46
-4898.34
6700.9
-5439.32
715.479
7523.01
-7740.11
-6507.6
7349.58
-8625.42
-12954.3
-3667.69
3192.97
-11935.7
-495.872
10458.7
3870.03
-9392.34
-2188.74
-474.778
14204.8
3734.48
-5258.31
-288.718
5533.69
-4323.03
-1068.9
-1391.16
7403.1
-7569.14
-7207.01
4577.99
-1241.27
5104.32
-5445.62
677.454
6985.87
-3922.33
8581.15
-6621.71
-10876.3
10136.8
1551.43
11634.8
8462.71
-2133.43
-6184.72
12168.1
-9872.42
8545.2
4640.08
6726
1593.66
-4609.38
1688.7
786.586
-14305.7
7691.42
-4015.4
-2564.21
-5848.09
2219.35
-17880.3
-1828.18
3955.41
-2853.66
8697.54
-6468.22
-3826.36
5207.85
-4246.92
-19.1932
4456.34
9305.77
2068.02
6276.02
1780.63
-6994.67
5097.31
679.193
2047.85
6400.9
715.65
-3426.98
-7300.75
6240.41
4335.87
10981.9
4883.98
-20100.8
9534.44
15013.6
-8178.3
-10180.8
17508.4
-4019.45
-5230.53
-6394.64
-1847.83
-2303.99
-9272.97
-5873.35
9038.48
10481.4
-7993.07
2449.14
1887.78
-3913.03
3353.24
12796.7
1300.4
10909
-2290.55
716.931
487.128
-2325.57
-1705.02
4664.24
-520.941
4353.3
-6023.95
7251.7
-11764
7475.95
-5949.3
1714.77
-8296.32
8607.52
-9258.91
3167.92
-9798.08
2609.32
754.957
-7483.35
3484.79
-5176.92
-2110.62
-3559.83
1736.22
4606.46
319.684
1656.24
-2240.24
-14545
-3368.86
2504.17
5149.54
608.006
-5913.95
-3444.8
5319.52
-5779.43
-10057.5
2609.25
7570.37
3732.27
4069.35
-1547.41
2969
-8728.96
-3897.24
1625.21
15954.1
-6380.94
2269.18
-14017.1
11619.1
-5671.71
-1116.53
3619.62
-7835.23
8505.07
2790.44
-6649.83
3747.86
-12669.4
3589.28
-3997.43
6409.32
-2929.38
-3442.07
-13569
-1253.62
-1263.58
-1015.8
3267.84
3669.03
-1908.78
11113.9
6372.69
-7291.36
-3054.16
3252.49
6745.65
7330.55
-12864.8
3125.91
-991.717
-3845.84
4149.2
5696.88
-8774.07
3665.61
-1915.6
-149.548
8773.77
-453.261
1155.94
2140
-6319.18
-6450.93
7017.33
3370.61
-15335
-7671.09
3602.12
5733.06
-10483.8
-5494.68
13255.6
-6381.78
-4136.79
5345.67
9918.41
-2597.75
-893.614
4964.37
-2503.85
-11029.4
2005.47
-4767.61
-10537.7
-1843.69
5615.9
-4431.96
-498.23
-16268.8
531.807
787.083
-5990.75
-839.623
12368.4
-2196.32
-8698.45
-2680.79
-10358.9
-6198.65
-2832.52
4477.83
4840.67
365.329
-2086.12
-8874.46
-9294.1
4299.76
5814.23
13484.5
-2321.65
12247.3
2432.05
-4053.13
2123.58
10745.8
8640.1
1819.81
2685.1
7178.46
5165.62
-15284.8
-1648.08
-4295.98
2635.14
-1479.6
-9561.59
-4141.41
-4765.44
2422.04
-6665.63
4455.52
8704.17
-1450.86
2634.95
2962.09
8067.49
-753.096
9668.3
3989.09
-3126.58
-1381.62