# vtk DataFile Version 3.0
PFC simulation results
ASCII
DATASET STRUCTURED_POINTS
DIMENSIONS 128 128 1
ORIGIN 0 0 0
SPACING 1 1 1
POINT_DATA 16384
SCALARS psi double
LOOKUP_TABLE default
-17248.1
5845.73
-3431.29
-1882.26
5795.18
-3351.21
-6451.09
-1609.1
-3880.17
-2616.84
14563.9
7705.63
1156.84
2789.68
-21.9857
-3200.32
-8336.8
10354.1
-6882.17
3048.68
11551
2623.7
1964.4
-7245.4
4694.62
-3938.81
5824.41
-1331.25
-11968
11276.3
-6516.01
-3101.94
-7252.32
-10826.6
-2243.55
6378.67
-995.422
4555.55
5305.04
-6331.15
11083.9
3638.17
-1028.04
5241.88
-8311.68
-3162.27
-4358.7
-2356.42
-13491.1
-9314.4
11491.3
-11084.7
-4780.36
6464.55
8373.17
-1234.76
-7736.41
-2474.03
7936.44
19490.1
-3538.92
5739.89
1114.22
-3819.81
-1297.41
8033.39
-8465.53
10653.5
6201.11
-9472.9
7066.53
4094.49
-4834.68
-3546.73
6047.15
-980.648
-6845.34
-1286.34
282.201
-13221.3
-13275
2050.54
-16190.6
-6538.95
-2717.68
2122.39
459.909
9354.7
12982.7
10760.3
-10084.6
9056.48
9312.38
-11326.7
7910.23
520.839
4982.86
-973.454
10393.3
5685.85
3923.37
5909.68
-3904.11
1590.48
11978.9
11039.8
4709.81
8647.43
-10519.1
-1871.03
-7453.17
-3947.24
-4068.36
-2334.92
-689.532
13210.4
-8820.54
-7131.53
-8080.76
-16975.7
6542.75
11976
-5121.38
-4683.03
5552.97
-7440.45
-89.9144
-1271.45
2789.57
-298.953
3450.95
3636.09
-11619.6
-7210.2
-1349.88
8138.68
2769.37
-1246.83
4613.9
7238.38
-2093.94
-2641.44
6845.52
2727.58
-13055.2
-3661.83
5051.09
-3865.95
12253.9
9682.82
1986.47
3299.06
12794.9
-4566.71
13236.2
-14196.9
965.219
-12202.2
529.94
512.039
15640.9
-11550.5
2472.54
-7348.42
-5506.64
-8466.93
10393.3
-4587.89
9948.91
-7615.7
6872.03
6128.99
2668.2
13909.7
-5914.68
1227.8
-12029.9
4315.42
-5430.61
3996.8
-8707.07
4772.55
14677.3
-7273.75
-5960.46
2124.07
413.676
-536.844
-9454.96
8204.93
-344.947
12826.6
-6779.75
-6308.96
-5490.28
-1532.16
4519.33
317.888
-2003.91
-390.729
6566.23
-539.664
63.6286
3049.9
-14238.7
-746.969
-1655.55
-3910.16
496.401
-2596.68
5996.81
-6795.2
2849.46
-863.527
5023.51
7100.89
-2839.52
15258.7
-9316.8
-7786.99
3158.32
-8043.94
-6698.86
2174.82
3827.21
-9547.43
95.8331
5973.67
-5162.56
735.038
14743.3
116.254
-5086.54
-272.236
-7728.85
-939.454
-13249
4390.23
-14089.1
-10976.6
13615.4
-5409.68
-11333.3
535.416
4986.84
4925.62
-12432.1
8904.01
-9506.6
997.487
11708.4
-1163.59
-9707.97
-5742.97
-2641.77
-3236.78
5758.41
5273.44
-4963.14
6251.84
8335.09
-9900.15
602.583
-945.265
-5005.55
3236.3
-62.9111
-4841.35
899.88
10073
6094.6
2710.28
9356.41
2100.36
-15.9263
-405.241
-1025.89
4717.48
-4539.07
2157.76
8292.38
-2767.91
-81.0885
-9015.36
3193.19
3371.36
1406.11
4067.04
-6167.77
3601.93
-1732.5
-4275.09
8592.73
-5139.9
-6720.32
-10384.6
-3524.37
10065.5
-1081.4
-8991.88
-14097.8
-3046.07
6121.11
-7393.38
-7616.79
-8346.23
12486.2
6053.27
3572.11
7853.25
7044.18
-2879.12
-1562.01
10125.2
3672.77
-4502.81
-6648.61
-172.664
-4422.21
-16035.9
3646.86
802.293
4176.27
9111.8
2952.94
4237.34
10869
4068.97
-4770.38
-2906.3
-8330.43
5752.27
-3668.63
3006.94
-14182.9
-708.95
-7320.53
-4644.37
-8534.6
-5282.72
-197.933
-10798.9
-7789.63
10799
7227.94
-9323.09
4158.49
7529.68
-1892.18
9375.69
2203.71
5153.36
2744.96
4532.65
-5418.48
6086.78
-3571.42
-5230.76
-9295.7
-6674.54
870.874
-307.819
-13384.4
-2624.08
9174.75
-3399.85
691.189
4629.07
-9691.03
12358.8
10788.9
-13060.3
1444.11
179.076
4764.76
-8640.69
-61.3212
-8766.41
11759.3
5560.1
-5264.81
2393.41
-5532.83
-2356.19
3952.27
13080.5
-11960
-1015.83
-931.582
-7103.87
-4496.01
-6686.77
-2832.26
-5197.08
3615.56
-9861.65
-8529.66
3552.55
-2230.94
-7529.42
-8632.89
6162.94
-868.989
-4668.62
7920.89
-14182.6
671.703
11.9954
5053.92
5891.97
6269.88
2629.79
-2091.83
10728.1
-5828.93
7141.44
2278.97
12543.8
228.43
-3979.91
-1007.86
3396.47
11449.7
-9944.01
9508.49
2883.58
-3712.57
8692.33
5169.84
9417.82
-1486.17
-545.631
3683.76
-9946.97
4381.48
-805.122
5649.28
3776.68
-16428
-2655.74
-8914.19
-1594.88
-10043.7
2209.76
1347.62
15886
6482.18
-19995.9
2869.32
10940.4
4356.08
-288.488
11282.9
-8481.13
842.103
-1065.47
-5581.51
-10810.7
-126.552
-1063.86
-12694.2
6020.44
904.264
-1686.6
-7429.54
-5363.54
-8068.2
10886.1
3481.68
4722.09
-3339.03
-1442.48
1517.85
2521.71
8391.01
-15110.9
-8391.07
5048.59
4855.62
-11910.4
7586.81
1796.52
-2877.07
-4141.08
-1982.71
8273.11
-3168.54
8419.52
-1624.25
15599
-182.05
-18792.5
9995.2
-8631.32
-5129.31
13421.8
2992.73
-4847.38
6963.66
2936.02
-4478.64
3986.78
-4264.15
2264.18
-3806.69
-4717.08
-610.18
-785.893
1813.03
-1076.95
7187.01
-3941.75
-4343.64
11658.7
2688.35
-12196.9
-5361.45
2276.15
-6211.83
199.638
12150.2
-4751.39
-5450.8
3380.1
-124.021
3836.38
18886.9
1426.56
2024.02
4780.81
-6159.14
4047.31
8970.45
5034.3
-3095.98
-3384.95
-189.027
-5329.53
8363
8971.8
-1019.01
5751.76
-5803.89
2444.92
8953.3
1192.77
-7558.26
5633.85
4350.59
-2593.5
4090.24
2199.93
11721.2
-7631.08
-12590.1
-738.191
-6722.7
-4591.09
3756.15
-7511.46
6246.84
-146.345
-3638.21
12745.7
-12779.6
4945.9
22218.9
-761.879
4868.62
12495.2
-9793.76
1745.89
7971.04
-3121.89
-2404.76
-7670.79
14182.5
-9149.49
-4924.96
-860.321
-11274
11436.9
-7553.93
-1904.71
-747.047
1897.37
6549.42
-12078.9
-97.7546
-1.67326
-10596.6
-9152.81
9611.3
12833.4
5536.22
3775.85
-7900.23
-6886.81
-224.771
-9566.37
384.345
2847.81
-16694.5
231.363
-419.799
-10406.2
-3266.82
3885.26
7310.39
-3568.44
-6390.31
11702.2
-2449.88
-2937.68
4562
-1956.2
-4988.11
-5232.78
11831.5
6982.95
-13152.5
-9016.3
11166.7
-8811.04
3930.24
8390.73
6927.01
-7126.84
-8807.84
4469.05
-3807.97
-2327.98
-3671.57
-5837.65
-9307.09
5849.57
-1226.72
-2334.2
1228.39
-8111.3
6352.59
2299.07
1329.84
-16715.2
3394.21
2654.69
4518.35
2142.26
-1778.64
5394.06
-7946.21
-5468.47
3588.13
75.4521
2284.01
17804.5
3877.63
-1009.86
-11151
595.083
-1668.13
-6540.12
10159.1
12914.9
-5930.99
-11091
-2289.44
-5804.6
-2646.29
-10825.2
8347.53
2453.88
3977.44
11129.3
3249.85
-2965.47
-19035.6
-2709.06
633.106
-5787.51
4088.73
-2225.95
-42.8104
-7151.85
2935.68
-4609.52
-9232.73
2352.01
-932.188
7931
9335.76
1741.69
-9569.32
-1720.51
6824.72
-13280.6
7519.9
11306.4
-16753.4
4962.85
4550.04
-5297.16
816.344
-375.597
-2220.32
-9188.31
6892.35
2589.59
668.798
9407.39
-359.818
11588.5
1654.98
-7133.58
3558.5
-3942.94
2994.08
9367.16
3391.21
-9901.52
8361.6
-7850.85
-3531
8405.01
17794
3321.97
-18151.9
2220.45
3558.59
-5030.67
814.649
6266.76
1356.71
11429.4
-2724.33
-1869.51
1125.56
1875.67
2042.06
3313.6
10876.9
8073.51
10299.4
-6755.3
-10247.7
8972.27
6949.4
8603.18
-2126.66
-604.78
-6443.09
5287.23
-2028.84
-11182.4
-11681.6
-3173.63
9729.74
11576.2
6364.83
-10203.2
6377.46
866.599
-15185.9
4451.93
-1008.87
7299.46
1647
-12270.6
5536.57
-9184.37
-12226.2
-2330.21
-8963.2
-1306.2
-7581.39
-3088.48
8094.75
-3903.08
342.846
-10201.7
2728.89
-7430.28
5272.28
-1533.37
978.833
2242.12
-89.685
-1642.93
-2101.14
368.874
-5192.65
1924.27
6927.01
-5453.61
-18971.5
9180.96
8845.74
11147.9
-1533.68
4477.19
-7770.47
5115.7
2708.01
7511.44
10151.5
10348.6
8231.16
454.814
2548.51
-12906.1
4511.59
-10713.9
-2267.38
6328.46
5145.91
1632.42
-9233.73
3574.29
-3665.84
4549.54
7161.5
-7883.24
-10888
5460.07
6783.99
-8198.79
895.872
-3217.21
4138.13
10810.7
4043.3
5566.64
-6389.25
-920.89
-355.42
-1783.91
5982.47
3528.9
6424.95
-7613.8
4219.78
963.063
-5000.9
3517.36
-11608.4
-13658.1
-8632.03
-4744.77
-5009.11
2753.03
7770.61
-3491.73
5391.76
825.998
-5715.46
-5882.9
18285
161.829
3164.87
1768.5
884.861
-6728.03
-21185.9
8050.06
-4600.52
2990.74
-1782.83
-8162.11
-10085.8
656.33
7033.11
-7686.75
2139.96
-4906.21
-4220.35
-6349.62
-7657.83
-3086.33
11370.5
-749.699
588.446
-4362.13
4991.34
571.277
8541.33
4443.7
-7132.21
2762.36
-6970.31
8634.49
12941.7
7523.59
-4301.23
372.026
15332.8
10763.3
2736.11
-3458.99
-3346.53
-3325.1
-2060.23
11334.8
3866.66
4734.33
7373.37
-5857.22
4545.73
-5346.29
-5541.24
6342.01
1256.77
-3135.65
3682.84
-15567.8
-8806.93
-5101.64
5927.58
-2689.75
-9753.68
9503.28
1266.44
8756.29
-775.019
-1452.38
3227.51
2581.37
8405.98
-1936.19
-6814.4
-7607.22
2362.58
-1190.35
13647.2
1672.81
-5917.31
2756.41
-10514.5
1911.75
-3106.54
4310.58
948.344
4123.82
-3633.44
3647.61
11659.2
-1924.16
-1407.83
379.367
886.868
-2828.61
10011.4
-10501
-11151.2
-6947.99
-11402.6
-12177.5
-4940.77
3496.78
641.171
-1260.99
7747.31
-2979.29
-1220.41
9488.36
-5142.86
7232.75
9820.11
5248.39
-778.552
-14362.8
5983.09
-4937.57
-1219.46
11966.6
-9082.7
4708.27
-6480.43
177.187
2704.3
-5923.45
-5082.23
1022.96
-7006.65
-9896.93
5806.13
5762.6
-1230.06
-2197.75
-8238.54
-1653.57
4915.76
-159.953
2119.32
9886.67
5450.78
9309.53
-9437.1
-10915.6
638.78
13201.3
6840.42
13518.7
4624.85
-11380.2
511.76
-3516.27
659.367
18605.5
5119.46
-6110.91
8377.82
636.772
-11966.2
-9037.36
7554.86
11837.1
-3906.49
-4979.32
-15667.5
-859.345
-1686.94
341.508
3129.91
1789.36
2087.38
-4766.26
11725.8
-6433.7
13431
546.389
-5347.12
9550.35
-6228.64
6231.62
13219
809.194
-1254.12
-4052.85
-6988.18
2115.39
5640.91
-1369.8
6256.65
-1356.38
-16955.2
-121.816
-1753.25
-3257.45
-2780.82
2267.16
6092.19
5102.21
5999.45
-12337.2
-1487.93
-11987.7
-2254.42
3891.05
6158.79
-13049.7
-9044.99
5747.5
-17709.6
2717.24
2797.68
5453.95
1836.67
-7774.56
7375.51
1302.31
-8399.74
3548.76
4178.72
-20361.1
-5477.38
7753.26
9570.68
7100.49
-6803.29
-2430.02
-12529.7
7806.51
13281.9
-14916.2
-3379.05
19438.2
-3698.66
2200.43
-5477.98
-375.143
-4025.58
-11470.7
7963.75
2811.36
-279.9
-3022.78
5707.26
751.46
2037.04
-1754.78
-5652.6
-7316.23
5644.06
-3341.9
14426.7
2004.03
2407.48
14231.9
-1638.13
10651.4
2219.66
9105.11
-1861.17
2975.14
831.346
-13160
12685.7
320.022
-9355.48
6933.14
-1701.98
1970.34
-16895.5
5622.36
11835.6
-242.684
-708.858
-977.764
1883.73
-10829.8
-3556.98
-6709.29
1621.67
488.775
-2995.24
1815.01
-529.743
-1113.95
-2058.56
-11613.6
1461.11
6934.74
-2555.64
-12726.9
-3849.08
5928.56
-2073.14
-2373.1
3904.21
4898.9
-6389.75
17470.3
-13611.6
-2056.04
10731.2
-4258.5
-189.917
116.476
-8923.87
-1642.72
-2393.55
6521.47
-9974.7
-6615.42
-10701.2
-2742.31
-2127.48
-7286.2
6191.26
5460.27
2976.86
-9842.56
-371.329
15391.3
589.489
10876.8
5057.1
1254.07
-6400.01
1879.51
13528.1
-13487.3
2950.1
1986.37
-2501.02
10952.5
499.872
4769.29
8752.08
7269.78
-1853.21
1222.09
386.459
-7904.44
8535.74
-6028.83
-14801.3
11428
-4585.14
-506.478
4063.61
-1640.97
-374.248
12776.1
2244.55
-229.54
14806.1
1827.68
2121.76
-5739.92
-4989.44
8005.33
5344.9
5046.13
4902.52
-4298.38
-5894.16
721.475
-5030.45
-4187.76
-572.394
-440.768
1593.25
-9600.05
-9745.26
6095.68
9182.12
9057.49
-3781.31
-651.106
2349.97
5369.81
7246.24
-6243.72
5112.84
-9026.84
-3449.39
-10740
-1446.99
4000.47
-15136
8829.99
-1530.24
-1766.56
-216.47
-11058.4
6129.25
-545.948
-4593.52
-8007.69
-16317.1
7554.41
-104.935
-3349.74
-16579.2
-6271.94
8778.35
-6967.42
1120.8
8786.18
-4977.94
-930.522
-2644.42
193.206
9397.61
4873.96
-9563.04
-1648.55
6118.05
-1948.54
8846.09
14006.9
11079.2
10678.6
-5045.15
-2427.42
7061.92
-6647.69
3913.22
3458.14
-1885.8
298.715
14010.2
-6864.17
7718.45
-6144.64
-236.216
2297.76
-1563.56
3798.06
-12600.7
4367.82
-6106.14
-4117.44
-12046.3
-695.637
-2069.79
-4416.45
9179.16
1106.93
-656.25
-333.674
-3282.84
-606.918
-13431.6
9062.11
6316.22
-11584.3
-715.144
-1576.72
-7733.17
11560.1
2405.3
1270.66
5474.82
-9652.63
113.906
-7088.92
236.421
-9569.75
-538.409
8098.89
13270.6
9352.81
-1030.65
8728.33
4757.06
4946.93
78.0278
1722.09
3736.33
-94.1675
3641.4
10275
-5862.3
16002.5
-8376.73
-2230.01
9248.59
-6352.85
421.54
-1603.53
8283.85
-7452.18
4015.57
-2452.03
9992.35
404.674
-1736.83
1351.47
12559.9
-1087.76
-4203.49
4281.65
1250.02
8457.28
-6895.88
633.277
-3382.44
-4514.73
-7504.7
5362.71
5603.91
-3130.42
9724.68
2515.05
-1504.53
-5739.19
3539.76
2398.16
2882.11
-4515.75
-1340.28
10162.1
-4217.15
-7317.48
5033.66
-2109.47
-1844.72
5831.5
-9457.79
2135.35
8864.7
-5616.66
-11198.6
-5855.24
-4028.63
6528.79
11744.9
-12160.5
-13592.9
-14058
-2171.75
3269.39
-3266.09
-5107.83
-7393.92
-597.483
-4240.36
4275.2
11252
1628.33
-3377.2
2178.68
-6089.17
944.287
8792.97
11597
3886.42
6031.41
-5567.49
10479.8
-8904.61
-2846.81
4679.67
-4041.45
2047.09
5425.32
-2093.01
2014.4
993.32
3798.39
2259.82
7504.74
-13479.4
9773.24
15891.7
-9282.26
14881
-5600.86
4159.6
7767.96
3711.33
-1293.41
-8842.63
-4464.12
-8816.14
8755.64
-8359.21
-3234.88
8503.76
2190.93
-3564.43
-3189.2
615.246
-5647.24
4763.86
-3556.45
-238.323
-5436.27
-12090.9
638.388
-4382.69
10613.6
4104.01
589.551
6713.55
5794.54
6355.12
-9559.2
-10824.7
5431.43
503.767
-9180.89
-1117.72
-3007.53
-2127.76
-1649.25
2785.87
11032
11044.3
-833.847
1975.7
537.565
4596.66
-968.739
-2566.81
2900.43
1070.04
-11552.4
-4668.97
3836.22
-16977.1
2574.75
8446.97
-2685.96
661.679
-9516.49
-9038.27
-1089.32
-6231.23
-5823.54
8227.88
-783.131
-1431.45
1835.78
8821.03
2840.15
-3569.16
-751.041
-3659.84
351.6
6150.38
-5379.53
-1108.93
3694.88
-1172.24
1628.85
-4206.92
8472.45
9180.84
384.308
5805.01
13155.9
3887.89
-11583
8254.09
10525.3
-587.981
-7246.39
1031.15
12343
-7800.72
-5966.57
-3441.63
12106.6
-6360.66
-3180.02
16052.6
-4896.67
17969.3
-454.92
-2028.19
-9876.67
-8502.89
-9861.33
3684.43
-5777.25
8002.17
-11101.3
-136.792
-2185.84
-3528.67
14326.9
-3843.88
-10093.6
3121.71
2208.61
5437.72
7664.85
-1122.83
-13355.7
691.935
3786.06
8679.89
1389.31
-6273.65
-6050.88
2593.79
18636.4
-14207.3
-6198.04
15749.9
-3679.17
2968.06
-11196.8
1671.87
6771.3
-13929.3
6134.34
3280.97
278.397
-4013.41
15464.4
-12534.8
2467.14
20273.5
-16451.1
11326.4
-13044.4
-3432.83
-12564.2
-20746.1
1907.55
-11644.4
1912.24
-8545.71
-6417.06
3460.07
-10853.1
-4126.65
1848.3
15137.7
866.946
-2826.87
5263.01
-959.902
-3703.24
-6182.9
-10138.9
-3395.95
-4340.2
2301.83
4331.7
-667.075
-2507.79
-51.9713
15478.6
471.691
3940.7
-10446.2
2402.62
5010.9
5898.39
577.842
-8286.6
4578.16
3727.69
11128.7
-9757.64
684.431
-4164.32
1942.05
14711.3
-11999.3
-5406.75
-2723.26
-20714.1
7428.86
5061.98
-3963.43
-1204.17
-14595.2
19717.9
12810.6
8419.05
12431.2
-9315.62
4972.23
8079.97
-14921
-9595.31
1745.63
5723.85
-8774.8
-4023.91
403.514
2927.95
-3867.09
10056.6
15214.7
-11516.2
11894.4
-4574.36
6676.65
3227.69
-8654.04
8749.68
2075.25
14356.7
12288.7
14118.2
-21143.7
-3219.99
23670.8
58.3246
5458.06
-10265.4
4955.75
-8949.44
-8935.78
9872.61
-7837.25
-6067.4
-7157.44
-5110.23
-7541.62
3226.55
-7076.73
3182.68
-3112.71
-8411.53
-1122.28
16532.2
-2469.13
-10496.3
1311.62
8149.01
17999.2
-2962.15
4136.27
-5998.25
-9692.49
-1217.02
-6149.51
-7452.18
-1558.13
12165.7
-2068.67
-18278.9
17689.6
14949.6
-14347
-6022.52
10101.8
-309.173
5159.19
-89.8729
1007.79
12140.9
-15312.4
3489.29
-6048.39
-12240.8
11143.1
3522.51
8509.92
-12706.4
-12296.8
11318.7
-26.6444
-6297.61
9747.44
3433.46
4228.62
-2934.23
7407.78
30886.2
20369.2
-6001.26
7214.25
9393.77
-2350.01
6348.54
713.223
-1711.91
-1458.85
-950.103
-1719.46
-3758
1089.03
9797.2
-6605.59
-6731.38
10374.2
13565.1
-3180.78
-3668.07
-7968.06
2277.21
2322.06
6580.22
4116.01
1760.78
9074.28
-11342.3
8481.11
-12523.6
-5782.15
4177.69
24058
1644.92
-13720.2
19575.7
8816.57
-3829.37
-14855.7
-3439.99
169.14
-10911.9
18186.7
3695.04
-13413.3
13906.1
-8770.78
-10916.4
-2286.25
-4330.98
-3831.6
-8958.7
-4730.07
-1391.71
-2399.4
-17979
-5047.21
3118.81
-22519.4
6848.68
-1323.78
-10571.6
3488.85
-551.791
-13646.3
-795.348
12554.6
2486.58
-7122.44
-16675.9
-648.766
-6665.86
10320.3
7052.2
-3304.3
7169.8
-3716.5
644.087
701.604
-13151
-11238.7
-6055.08
1083.29
24038.2
-16088.2
-6120.11
-19303.8
6699.21
1291.94
-1059.59
15483
-5513.42
-4084.05
10577.4
13924.6
5614.95
-6745.07
-5107.82
15728.7
5593.42
-979.233
9470.44
-4375.03
-1251.27
-6056.78
-7189.5
16656
-7768.53
-25667.2
-7350.72
-8729.25
-4695.59
4178.79
-5553.05
2641.29
-689.931
2807.33
-5139.97
-12290.2
4559.48
4497.13
-1706.49
5560.45
-4781.95
-5658.52
-6158.97
11929.6
17816
1018.56
-3660.5
7107.72
17481.8
572.898
-6312.32
-15377.6
11195.4
-7060.6
-5474.37
-5110.48
-14764.1
-8379.95
-166.864
24049.1
-2330.05
-6787.53
-1666.67
19609
4652.8
-8711.62
8021.65
-2370.64
2111.48
-8781.53
-6961.1
8267.32
-17205.6
-5789.05
1233.66
8934.21
3201.87
-11774.2
-11532
-2432.05
10865.2
-3001.97
10444.1
9566.72
455.785
14655.7
-9377.23
17617.6
-8578.24
84.7532
7061.41
7390.36
-1891.97
-7757.29
-6876.65
11697
13823.7
-3024.85
-5775.88
592.59
11004.7
1433.28
-3726.08
6931.73
-265.168
-11122.7
9321.01
3991.68
-6842.5
-325.245
8472.97
4090.43
2900.86
10586.7
-9347.13
-2865.16
-2897.13
-3188.99
-25935.5
-1802.75
5239.31
4830.21
-8889.97
-7963.86
3089.58
5547.67
-1384.45
2032.05
-1285.07
564.178
-7891.85
-14761.5
-1512.84
-18394.1
14033.9
-4207.99
10445.6
-8956.26
25325.1
773.096
11786.6
-8867.07
14553.8
-12192.5
3545.34
-10516.9
27090.6
-19562.8
16815.9
-12232.1
4342.25
-4246.83
13117.4
-8220.47
8114.38
-1739
13161.2
6661.5
9271.41
-7814.61
15818.1
-777.99
-5612.31
-715.58
7082.46
12981.5
1460.17
10418.5
2654.59
-10949.8
-6626.34
-4101.64
-1661.09
8319.06
-7100.76
5645.82
-1819.23
23199.6
-4187.86
9151.04
-7056.47
-541.718
-14007.8
-6618.45
-10523
7471.9
-15336.2
26941.7
-12627.2
7732.33
-7879.31
14315.5
4043.92
2556.53
-5293.34
18999.3
-15382.1
-4278.52
-12282.7
-4491.17
-8899.12
16127.2
2630.65
-6671.16
-19287.3
2817.18
-6689.58
-11842.7
19452.5
-946.041
-2923.5
-14398.8
17270.9
-19714.5
10920.6
215.911
3017.83
-7285.29
4782.45
9955.25
-3184.72
4284.48
4603.15
-12554.9
-1482.26
-2686
1736.41
2473.38
13807.7
-10499.1
-9353.46
2838.45
1008.51
9761.91
-2905.05
-1239.59
3139.93
-858.587
8795.35
9391.07
13230
-15532.9
-4123.97
-873.524
2114.23
7419.64
2584.41
-14516.4
-5446.29
-8918.78
-20248.2
4688.31
-9756.29
5244.53
-6232.56
-4752.89
-20836.2
-4780.47
10965.7
-12920.3
1606.01
-2113.23
-2937.67
3335.73
-6422.22
672.059
9480.45
-3665.19
11189.1
-18936.2
-5575.84
3479.15
4665.18
1086.64
10718.4
-487.635
8904.87
1988.33
-8894.71
-4760.99
-9787.26
-10526.8
-11146.7
10411.9
-8211.32
21749.4
881.527
-3380.41
2341.81
3826.93
-10270.1
3540.93
-5638.6
8704.52
7351.85
-4107.74
1159.42
-2159.68
1606.98
-12958.6
13671.4
3609.56
-4794.38
-13566.5
12980.4
11730.6
3247.93
-4346.8
-341.318
-4915.99
-1579.87
-9383.52
-4403.57
6335.3
6266.88
15726
-8513.89
2212.73
-6361.84
9755.66
7970.51
-6450.19
-7556.09
4888.22
-3029.08
-3611.14
7454.26
8290.79
7907.24
-1595.5
-482.355
5867.84
-9372.42
-2232.37
2513.97
1479.34
3547.65
18897.9
3305.72
-9828.48
-10465.2
-7797.76
-635.467
-15235.5
12604.9
1152.41
1939.42
3105.29
10234.4
2527.42
2461.15
8792.06
-962.292
-7684.94
-5080.14
-2657.34
-1009.31
3522.83
-5154.42
5615.45
3732.8
9013.58
2198.58
22827.4
6947.26
23907.2
12229.2
-5299.46
-5764.86
2682.39
2108.23
9032.89
1129.07
7469.04
-2780.75
-838.345
5895.47
-7118.48
15924.3
1089.26
233.341
-11614.9
-9507.79
-7797.91
2.58248
-3714.74
6595.49
-4843.44
3228.23
-1689.8
-13334.8
-6918.1
-8670
867.12
1147.19
12128.1
-8116.96
10468
7720.78
5666.87
-5290.51
-6336.21
-10835.5
10154.2
-1486.15
9204.2
4915.16
-15959.3
10782.6
621.219
35.7378
1443.03
-14874.3
-8958.76
-10910.1
2524.29
12705.7
-11397.4
12472.2
3223.6
-1843.79
-7780.72
-2569.25
-5082.49
1466.75
-6077.33
10170.2
1184.45
355.502
14731.9
-15660.7
2981.75
-5382.54
2369.6
12691
2608.64
-765.104
6690.35
10379.7
-2340.38
-14588.8
-983.936
3035.54
12741.1
-18136.4
13050.1
1810.67
-6628.82
15587.5
5672.54
-9262.39
-18860.4
1703.43
-2129.8
-8898.95
-11968.9
8886
-8449.33
-11877.9
5059.07
14344
3486.46
10039.9
6134.56
9307.43
2865.13
8304.34
11766
-4150.06
-1543.96
8062.62
6887.6
-14367.1
-9686.46
-8288.11
11227
8927.27
-3134.95
-4868.1
2193.6
9904.69
-7512.53
-2132.83
-16451.2
-7208.08
16284.7
-18358.2
-7812.36
-2844.29
727.293
9796.03
-12767.4
-7123.58
4749.56
2173.32
4810.41
-2364.67
2470.5
-2430.78
5660.77
5804.28
6627.44
-7979.48
-2909.5
594.634
13473.4
-7260.4
-22520.2
17671
2127.11
2324.12
-3291.36
-3179.01
2023.05
-4673.15
3614.23
-2038.3
-4065.14
-14482
-748.796
1677.81
-3940.05
-2092.23
-11055.1
4211.42
-358.619
12840.9
-2452.11
-4453.33
-1798.75
-13831
13022
1881.37
283.978
17626
-11654.3
4946.21
11584.3
-9627.64
494.165
2867.1
14213.3
-399.339
-488.219
9401.11
482.647
274.756
6345.02
1354.09
1531.41
2508.21
-16755.1
13308
-10181.3
-2374.73
3811.46
-9189.11
16432.2
-872.993
-10023.4
-18832.4
-2191.8
14153.8
4779.45
-9411.53
-7541.74
1677.33
9088.33
-8986.24
-643.973
-653.595
-5681.59
3111.76
-9474.77
3365.14
-708.058
3282.47
-11681.4
1340.53
7232.83
3822.66
-3155.91
-8168.28
-15379.1
5169.72
4400.41
-3697.91
3819.58
2572.8
6803.41
-3969.53
6126.78
-1046.24
-4994.1
-22925
6264.02
-8202.05
-15873.7
-1913.41
5847.5
-1323.63
-7150.94
-913.073
-3895.32
-8287.21
-1512.51
4009.5
-1622.92
21437.4
4251.99
6987.36
-1641.7
6064.05
-2595.68
-12771.6
15646
11040.4
-2237.36
-2892.98
1840.96
7671.21
6122.47
-1502.87
-3452.81
-10750.3
-13272.2
-12556.4
-1427.92
-3389.48
5396.2
-14415.9
9183.12
-5641.53
-415.353
-10582.6
-8949.55
-296.396
9178.52
-4135.48
8501.92
3761.72
-7379.67
382.803
-8634.74
-1833.8
-2130.39
2461.33
627.189
-19344.4
2529.57
6295.99
6449.52
10494.5
11591.4
-7398.16
-6779.59
-8206.72
3850.33
-9554.47
-328.252
6034.21
1762.45
-24257.7
-1207.61
-14378.7
6789.06
10633
13407.4
-13113.5
-7992.43
-738.132
4764.51
-1403.43
-8926.64
18072.7
422.944
1123.96
-6016.67
-3871.03
11388.4
3080.85
89.3121
-4779.14
-3295.68
-7077.69
7942.78
-22549.7
2169.89
-6645.14
-1921.32
8137.65
-1785.13
-2080.85
5245.71
-4138.88
9150.65
12592.2
-8325.98
-5223.13
-11130.4
-206.257
7336.63
-7071.67
7661.54
2305.24
9773.22
-15281.7
1839.94
-12711.6
-7933.96
3355.63
10897.3
-3345.5
4139.31
-8552
-15032.8
-10230.1
4755.89
-870.634
-10537
1593.52
-7921.93
-14425.7
-5918.22
-5696.03
-7795.98
-1776.94
5778.3
-4154.92
-4711.43
-6437.31
7304.25
-849.917
5342.29
2989.33
-11222.9
-11289.7
13845.6
-18535.8
6190.49
3843.34
-3734.89
1197.41
-3434.52
5780.79
-3637.99
1314.74
-4751.88
-9434.41
-10632.7
-9845.37
-1106.37
-12442.6
-11674.4
-13408.7
-9738.32
-4038.4
-8549.95
-17710.6
-9685.1
5302.44
9706.75
12161.3
16485.2
4427.14
-1727.87
9981.29
-7272.39
-4885.01
13490.2
-5758.82
3348.1
-12678.4
-8966.69
10173.2
14200
6674.09
-10823.9
-241.069
12365.4
14965.8
-2907.36
2272.96
4919.94
2207.32
-2834.33
-1566.37
-1976.29
-12057.5
10057.5
-4989.82
-8853.97
22269.7
3020.5
12330.5
682.524
2568.27
11900
10756.6
3246.49
-22506
-3959.39
-8899.84
-12897.3
-2991.22
-9094.45
-41.135
-3517.28
-4298.32
4430.49
76.5013
8565.12
5427.4
-13635.4
-6171.54
2414.37
-1503.63
-2234.91
-3832.02
-840
-6339.16
-16054.3
4218.44
3136.33
12668.8
7168.54
-6388.72
2161.03
12456.4
718.167
8686.74
833.926
-15496.9
-6936.89
-6218.96
6922.87
-14026.3
-1404
-747.773
10306.5
9888.16
-4653.94
9480.55
5184.63
5750.28
19592.7
2701.64
-1848.07
-1944.28
-10659.5
490.425
-2075.31
-14724.6
-14306.4
-8673.65
1102.65
6777.53
-2339.66
18070.4
146.021
11811.5
14626.9
-21848
-2959.79
6232.4
2501.1
-11219.4
-1135.33
-2899.62
-6767.07
-1844.84
13216.6
13735.1
10919.3
15263.1
4291.13
18316.2
9725.41
-7145.45
-3618.53
12770.2
16779.2
225.73
5058.88
-1038.06
63.4175
9121.53
-7501.77
-4397.44
1266.2
-2876.67
-2390.63
-13110.4
-15083.9
5905.01
6116.87
7706.82
459.931
7165.83
9339.11
-901.393
8817.2
791.172
-11667.2
-4748.14
-7380.93
2796.38
-8528.42
-15874.7
-10853.6
-9285.96
998.339
2294.88
13941.4
-4446.78
-1920.03
10160.3
3654.33
-50.3211
2094.97
-1627.17
-4387.07
-15032.7
-8801.02
-4855.89
-2019.16
-948.849
-6647.77
10401.3
-7447.42
9682.26
13289.8
9406.53
4752.68
5845.68
1300.86
-19306.6
8209.33
1157.71
-5951.19
-4853.97
-6485.98
-8291.96
646.632
299.651
10384.9
10033.3
-11120.3
9017.42
11424
-2222.51
-5348.75
13674.7
-10744.7
-2048.3
9835.83
-10130.6
-1571.55
-4784.8
-884.156
2240.06
2028.34
5271.56
11211.3
6101.99
3298.23
2843.89
-1967.95
-9557.12
3082.23
-16776.1
-13357.3
-11428
-1315.9
-2128.13
7840.98
11731.8
6.1759
28751.1
18837.6
5648.78
4548.18
22693.2
-7393.29
5195
-2553.33
-15604.1
-5822.92
-14501.3
1974.22
-6590.36
8907.31
1533.61
-111.7
-4396.12
7544.59
10832
-2165.7
4455.08
-9788.33
-2431.62
-8869.45
-19618.9
-13993.9
5284.46
2926.55
-7783.38
10098.4
5135.79
-3151.96
13926.8
1963.17
-2934.6
1818.7
-4577.48
3763.44
9693.8
5200.16
-3351.91
-5462.43
-4462.5
3183.03
4597.79
1873.23
2989.8
-2724.16
10720.7
16267.6
1133.59
-593.389
-4735.09
7995.85
11581.9
16151.7
-3743.24
-9378.55
-786.735
4669.51
5116.81
6768.61
-7510.94
-9214.8
-12414
-11053.8
4053.33
-3490.65
-9026.51
-13289.6
3375.96
-1743.65
-1742.04
-4664.62
-822.126
-4386.51
-6511.63
637.983
-8053.74
-7045.37
-3129.63
17706.5
20746
-9666.24
7922.62
217.53
-2389.08
6573.47
-7952.66
5106.05
-5277.65
11798.3
473.581
5657.4
-9344.89
1531.3
1569.21
-8011.79
12016.1
13764
-7920.31
-4001.73
7432.17
-4726.09
-4371.09
-14923.3
-365.094
-5135.08
-3249.57
-2950.07
-3551.28
-13932.2
14809
19663.9
2527.43
-11996.6
-4910.69
-11098.9
-1694.84
16653.8
-7682.24
1458.69
143.295
12117.3
11406.5
4416.14
-7466.85
1945.22
-5733.38
1851.23
-3073.5
1908.74
1751.81
4492.46
2778.09
724.356
-1199.93
-7753.13
-4133.45
-531.491
7694.34
-13124.7
-7579.87
-123.501
480.447
-1564.06
3197.88
-12653.7
-6853.91
-5669.77
895.147
-407.623
-12277.8
7293.39
4560.62
2420.82
-5583.71
-12216.6
-2524.42
-348.707
-5955.32
3613.72
-531.049
-5639.3
4922.87
-4646.64
7490.8
6091.96
-4840.04
-4940.06
2307.17
-12049.4
-10605.8
7786.91
4540.36
9472.29
4943.41
8478.1
12791
1127.67
-4626.01
3763.1
6281.8
-422.402
-8873.67
-5122.68
-7487.19
6026.07
278.228
-2311.68
-757.892
878.237
-5792
-5411.12
3436.03
1700.95
-2519.87
57.4527
-1481.74
5340.38
8920.08
7316.51
13344.7
9619.93
-5440.26
-6169.82
5613.52
10660.8
11425
5936.06
7463.42
-6376.49
-4711.35
-2961.95
10844.1
11207.9
7583.19
3286.64
6897.94
-4215.33
-15941.3
-5412.78
-1178.91
225.167
-3316.91
6077.25
8021.71
-3680.85
500.139
-7108.76
-5368.67
-1895.2
4355.06
12339.1
7677.82
3564.29
-13184
-6798.28
-4119.99
-5605.52
-1668.32
-1143.69
-137.583
-701.524
-12394
-20968.4
-2698.87
4111.75
-8686.71
-662.788
6210.85
-2658.63
-3920.01
-9772.71
2399.29
1281.8
809.734
-976.892
4328.01
2699.57
-12396.4
-19319
14010.6
6836.72
1339.82
-3846.69
5483.02
3845.04
-16952
-2822.14
-8099.4
3492.21
642.119
-7772.34
-5785.86
-1391.15
3876.66
-1718.71
-1995.17
2884.1
-8905.99
-4686.76
-15050.4
-2001.7
9362.91
10566.1
13240.9
412.023
-6809.73
7670.87
4205.92
6932.7
-3120.06
677.523
1133.92
5558.25
-1323.29
2633.68
1369.29
6345.8
16400
-4183.88
10218.4
2165.46
7619.01
2935.55
-6642.18
-4384.04
-8445.49
7120.82
-2121.32
4725.11
15886.1
14764.6
11961.3
-4133.06
7970.96
6429
-2463.13
-1150.72
4055.67
-3287.68
-9791.5
-845.469
-4797.27
4875.22
5384.41
2066.52
-1010.18
-8565.05
-14805.3
7008.16
1907.4
-8754.35
4270.25
-11579.2
-1780.71
3678.71
-2567.89
8433.23
-4043.1
-15.0598
8486.85
-1544.14
-6155.49
-11636.3
460.466
4417.02
-854.567
2865.84
-14444.1
3504.7
-595.989
-2492.9
-7608.21
-4308.35
5431.27
-11246.3
423.614
5158.61
114.612
-3056.33
-5055.57
-6064.78
4719.11
-2198.2
9632.09
-13460.9
12349.6
3750.27
5377.11
4551.84
-5512.84
15183.1
4702.51
1795.9
19771.9
8753.1
-1907.83
7934.8
1737.31
-7158.35
-12509.8
-6684.83
-9677.23
-597.681
2317.41
9338.85
9628.07
11315.8
3688.29
-1804.16
-3111.56
-2609.87
-7338.52
731.695
-5532.26
-10357.7
11136.3
4958.35
13089.7
-2253.69
3289.29
-8294.26
4430.48
-860.675
-4054.88
4273.58
-9263.37
-2779.46
-11861.1
10662.2
-7192.35
-5529.71
-10107.8
-1160.59
-16905.3
-11638.3
-3475.61
16436.4
-2257
3685.2
-5344.6
4037.24
10250.7
-10110.6
-212.075
-3082.91
6936.93
-682.533
1830.78
-14156.3
7926.24
4120.29
-168.353
-7925.3
8185.73
17164.5
7043.37
-14327.3
982.222
15583.5
-8112.88
-2499.68
-1977.04
1664.51
5795.04
-249.686
-9341.08
-1540.92
3226.87
2410.95
1821.83
6749.86
10069.1
2524.99
-11043.5
-9262.97
-4879.11
6400.21
3586.4
9038.02
11195.8
15559.4
4927.46
-30.4275
3476.63
-14277.3
338.282
5879.61
6395.34
6891.76
-8109.72
3635.74
2725.72
-20872.5
-6414.81
3006.07
10050.8
11543.9
6571.44
-13636.5
-5406.9
-1470.18
-8824.15
-7955.79
11474.1
8000.06
1224.41
-6580.42
11408.5
3796.58
-10086.9
2433.24
-235.463
520.632
-9591.7
6320.39
6709.53
-956.527
-823.195
3327.45
3087.39
6215.97
-4027.43
3416.3
-16168.1
4286.9
19422.4
-6301.04
-6196.09
-463.726
-60.8429
-3520.81
-4047.5
-6718.8
6040.39
500.237
2478.02
2569.28
1448.1
-4320.19
-13085
-9329.25
5360.57
5601.97
-3593.97
-647.358
-1107.91
-6025.49
-1415.6
3147.4
-687.618
-7557.69
-1911.99
-3842.97
4071.89
-10755
-3343.02
3619.44
-10979.7
2507.85
-11399.1
-5236.6
1674.45
8238.24
2857.73
-2186.77
-295.359
7608.8
-7889.29
3984.65
46.5421
-13785.9
13402.6
2982.09
-7976.58
454.795
11614.1
4392.24
-13732.3
3952.1
-375.833
2209.84
4754.72
-8600.96
1631.35
5947.17
10312.2
-6689.04
-979.284
-4226.44
-7157.9
6627.06
-4229.89
-7543.91
5371.7
849.719
7264.01
7237.99
7476.54
-2589.65
286.29
10623.9
11690.2
12326.6
-4288.92
8552.26
595.877
3958.3
3106.29
-6732.4
270.513
12082.9
-13915.9
-4073.76
-8170.32
5180.05
7928.31
-8667.5
3897.3
-12258.9
-5296.3
-5354.07
800.324
11610.7
-4597.41
3034.49
4605.13
-231.728
-1757.65
3859.4
-5434.83
-11770.9
9596.05
-9651.64
2865.77
-8849.35
-6365.92
-5602.87
-3601.02
-5082.25
-13986.5
2289.37
-11505.5
1147.88
3662.46
2411.48
-13828.8
5571.07
250.081
4252.49
8607.69
-3047.11
14358.1
4061.93
4589.63
3440.15
1346.85
-12003.1
165.796
8693.5
-14163
9012.47
-9827.89
6238.25
-1817.37
657.645
17360.4
-9998.04
-7507.25
517.671
2892.6
-7466.48
-415.377
11400.2
-2028.36
-9299.83
4068.28
-1599.86
23036.9
-13405.4
-9377.86
4882.39
-6356.78
390.984
-732.249
11510.6
10059.2
24201.4
-4874.14
-1374.5
3268.71
8563.31
7625.46
12024.2
-6732.21
3838.83
1012.38
-11869.7
6370.57
-12499.1
-2419.52
1031.34
1986.77
-10300.5
-8172.42
8451.09
3277.19
1344.44
2445.82
-3562.27
11122.6
-4020.91
-6216.72
4369.65
7674.89
10051.5
-6717.79
5600.23
-991.416
9168.4
-18554.2
2494.03
-236.887
-9794.16
19604.2
1215.51
7151.79
-10536.6
1763.53
5371.29
-5595.63
-5223.8
-5870.53
9947.41
-10107.1
-2584.32
-447.219
-2369.99
-8240.81
3129.14
-351.768
-4589.2
-4271.1
8318.92
4423.25
-7962.17
-1606.39
-6253.13
-4607.67
-1448.36
6446.82
13.4776
1294.87
-10873.8
-194.68
995.894
-8309.03
14976.3
6320.85
7257.32
265.725
-10768.1
-8584.23
12191.4
8184.66
-9144.71
57.2015
4034.62
-9277.59
-11466.7
17043.4
5266.52
-3699.61
-4302.93
9559.94
-6720.61
-3474.21
6218.03
9220.54
3943.87
-12155.5
22855
14377.7
-8966.12
-1619.99
-9450.69
-407.517
781.121
3439.14
-6060
3870.09