# vtk DataFile Version 3.0
PFC simulation results
ASCII
DATASET STRUCTURED_POINTS
DIMENSIONS 128 128 1
ORIGIN 0 0 0
SPACING 1 1 1
POINT_DATA 16384
SCALARS psi double
LOOKUP_TABLE default
-15941.2
6719.49
-6076.17
4322.3
2289.4
-4448.4
-2018.96
-6603.73
-4255.29
-11360.5
23341.4
4222.88
3725.38
-17339
-10827.1
6610.5
-413.066
12735.8
5894.86
-2441.73
15081.2
-9785.97
11203.2
10154.6
-9243.47
-2636.44
15317.2
796.934
-5866.79
-2459.3
-1473.69
564.439
-1419.18
-369.259
2462.88
5882.92
5092.06
1262.17
-12219.6
8002.43
174.128
3898.16
-14817.3
7546.07
-7925.23
1170.44
-7166.65
-4826.17
-11222.2
-3426.81
-1108.41
-16234.7
5838.45
-570.653
-9006.7
-10608
15382.7
-8468.26
-2152.76
6175.55
11185.2
-1298.4
207.367
-1324.13
-7595.64
-5315.99
10086
-21933.4
-3723.58
10536
-4977.55
-4187.84
451.336
-13963.2
1886.97
11057.2
-9048.85
-7457.25
-1003.05
3307.17
12333.7
954.48
-6170.85
6102.13
-4337.56
11128.7
5989.64
-3908.95
-5138.02
7477.66
-6162.31
-8581.36
-10091.1
-1140.04
4880.08
575.759
-4543.51
756.686
-1277.86
-280.706
-420.28
-2384.09
-6317.76
-1553.56
4886.69
-934.666
7794.98
-14582.1
-12016.2
6867.93
1872.49
-7216.32
3564.52
-12071
6759.29
-1925.47
-4027.97
-6647.32
-6143.04
-5537.97
6999.44
-2472.05
-14096.8
6994.99
2347.18
-3960.52
-3612.85
-7311.34
2974.25
-4540.33
6133.03
-7241.69
-16485.5
-6009.17
-6751.39
3887.61
-25025.1
-5302.2
803.932
5565.54
6947.18
-12403.5
-1563.99
3991.19
-17617.6
-4592.42
7523.6
7176.48
-5732.71
-12543.3
-1727.51
6029.54
-1511.14
17934.4
308.664
7650.04
695.96
5354.84
252.758
4441.99
-9963.34
10440.5
4203.52
2245.61
9524.8
-1783.05
-20529
-1.18564
-71.0588
-10294.6
-3098.02
4553.89
-11708.2
-4642.62
-7477.24
20483.9
1015.12
825.94
249.993
-4741.22
-11216.4
-9199.32
5309.56
961.551
-7647.61
2340.26
-667.13
2550.52
-1019.64
2792.85
3458.59
-3354.78
-8147.26
11242.5
-2590.59
-5322.4
-13603.6
3898.8
-10228.2
-8952.57
4229.25
-8643.8
-8295.81
-9076.12
-7561.56
-26535.5
-2925.38
11791.1
-6961.99
-1146.33
5747.38
-9017.17
5545.14
-5813.53
-9998.41
-16816.1
-3396.92
1131.24
-16344.5
-19885.6
6611.59
-13578.9
-2482.87
13633.6
-1571.57
-4181.88
1275.16
-3575.77
1033.34
9878.51
512.545
-10192.7
-2705.52
-6000.7
11709.7
14490.8
-892.975
-9924.22
9603.61
8796.06
9259.06
-8458.06
17055.9
-15444.3
250.197
-1587.7
158.879
646.161
-5536.69
-4246.21
-825.858
9034.71
9082.31
-10757.7
-1256.43
13628
-3658.19
6947.34
5616.76
-1513.73
-6961.82
-4611.6
12939
-2327.27
-1290.24
-3150.99
2577.51
10285.1
7082.36
-5647.75
-10121.1
3719.74
6806.21
-12940.9
4994.53
-2859
-2513.32
-5331.62
8641.53
4780.64
-7137.31
12284.8
-9786.49
-3688.48
4685.1
-17164.3
5945.42
1306.94
3701.77
-9106.96
8120.22
6167.41
-2960.65
5870.29
5756.2
6732.82
8477.76
4539.73
-1518.14
-20.1229
-2126.08
3505.9
11426
5359.61
16219
7890.85
1173.5
8402.59
14707.8
-4074.16
-12278
-7551.36
12836.6
21617.3
10953.9
-503.67
6205
17723.6
-9162.06
16423.9
27678.7
2993.84
10648.7
-3417.93
3789.14
-1962.66
870.885
-2118.58
1568.05
1922.82
11104.1
14264.3
1690.75
11978.7
-6728.77
-53.774
-4249.77
13971
5400.83
4851.87
8568.29
6807.01
-3117
-344.769
6625.96
2476.66
-2086.6
13875.3
-12831
3432.18
-4759.89
8268.67
2613.27
-3554.67
3671.67
12028.1
641.628
-9422.78
2551.59
12999.7
-4570.77
7255.47
-21620.5
-6726.05
11806
374.003
6865.67
1400.19
-5451.26
-4137.14
5228.59
16207.2
6665.79
4098.37
-7252.95
-5767.59
16881.8
5811.21
11980.5
5170.39
-21148.6
5103.72
6524.14
-2732.23
613.282
-7678.75
7404.3
-21865.9
-804.404
-2187.04
8582.01
-404.424
1216.07
-5890.83
-12292.5
8910.37
2191.86
3528.59
-3207.94
1835.94
3533.21
-16037.2
-9925.75
10806.3
-6209.2
2862.47
3215.9
8247.45
5200.27
-8923.09
1884.36
-8571.07
-1657.17
-831.707
2496.62
-1497.57
1574.25
7761.25
-3257.03
7397.75
-7080.14
3353.05
-5254.26
-5483.82
-341.831
10864.3
-7077.89
-10541.6
3370.1
-12055.7
7299
-845.648
-1521.32
6826.68
2729.43
-10540.5
1329.26
-2581.89
1335.4
-9594.23
-5863.28
5309.02
13916.4
-1880.54
-14633
6982.95
-7689.35
5874.32
1533.42
-18596.5
7674.33
519.577
2010.75
-1688.3
2684.84
4736.95
-7010.12
8139.89
7415.77
-954.756
5690.49
-503.155
5267.28
-8019.08
8148.17
-188.007
7892.14
-2783.44
-4107.28
15257.6
2872.5
-2353.6
11671.6
6891.33
1830.88
657.357
-3721.58
11517.5
1065.66
4366.66
7539.05
-249.949
5052.77
1771.95
-5106.36
1670.5
15659.4
11224
82.4963
-7238.73
14064.6
-6090.13
5967.35
11576.4
3159.75
1285.98
2622.82
15438.1
2789.15
3481.79
-823.837
14402
-312.806
-7596.27
-8329.02
-2450.84
10388.8
-11336.6
-1576.35
-424.023
-1287.31
7941.2
2580.83
3377.37
-4155.11
-644.292
5618.96
4008.84
8893.47
-1833.36
-5751.26
-4565.24
6522.22
12347.4
2959.51
-1537.02
4800.4
-8512.04
14438.3
2101.47
8684.9
5289.56
2195.58
-5459.4
354.032
5368.99
-3016.57
-7226.5
-1210.64
9348.75
2944.64
772.375
-3116.49
5560.55
-11062.9
-9334.63
-9748.05
4919.24
9940.24
-13683
6745.1
8022.05
-3765.65
11520.6
3834.74
7060.88
-1236.27
6633.94
-4095.53
6875.14
7249.45
6858.66
-10318.4
8898.15
-7480.76
1805.31
21643.4
-1025.53
-2343.98
-7366.79
-5168.75
-1088.3
599.661
7489.77
5567.72
-11519
3656.67
-6103.7
16749.6
5944.69
13951.3
9377.17
-21320.2
3088.73
8394.46
-3288.56
-531.531
-5206.48
7921.64
-7616.48
-13338.9
822.627
-5792.85
-816.473
-9205.28
-11112.8
12303.6
5708.78
-8060.82
-5021.5
-6192.39
7221.95
-7516.29
4411.71
-1877.41
16125
15558.3
-4499.21
-7474.51
6028.65
-7577.24
8173.74
17058.3
14695
5554.87
5916.31
814.103
7869.46
1645.53
7526
12264.6
4839.94
-6259.09
1054.13
6065.27
-1238.17
-4241.69
-57.9417
7920.56
3398.26
-3732.28
9602.45
8171.66
-4915.9
-201.61
-575.4
-12467.7
1381.41
2193.91
-12794.1
5156.55
-142.81
12116.5
3339.03
6981.74
-3941.86
-10314.9
-1509.89
14344.8
5180.87
-6788.38
12776.7
-6722.03
-8240.85
-1209.47
-339.977
3344.74
-14060.2
-984.453
-9702.12
11792.6
-2581.47
-9292.43
-6524.14
-1123.87
707.036
-1036.16
-3863.91
-1010.95
3978.33
-691.216
-8396.69
293.45
6675.26
-1382.09
-21568.8
-2149.85
9294.58
-12943.9
-5919.73
6490.06
-5517.15
-3775.62
7182.23
-8667.57
4461.05
6061.8
5719.35
-179.954
-1117.05
8016.22
5739.46
1416.15
5794.19
3581.65
13257.1
7063.98
4920.84
1494.98
11379.9
7880.73
-223.48
-8541.43
7112.66
-1561.21
8329.1
-3182.83
1330.09
14695.4
254.18
-4684.92
-14245.5
3920.5
852.617
-12422.3
2327.03
10279.2
-2731.67
-5317.15
-8408.46
7170.33
9915.48
7636.2
-2620.28
3163.76
2259.8
-1463.61
-6185.43
4887.54
-4630.85
-3466.78
2310.12
3040.63
-4318.12
6905.57
-8432.53
2575.7
-1639.88
5764.14
304.279
-2080.03
11817
1313.75
-3354.78
8208.01
14535.4
-6540.75
12447.3
-1910.58
-5645.38
1637.21
-11956.3
-4147.67
1194.78
-9098.9
-5687.54
-10763.4
-10897.7
2708.28
-6781.08
-9048.53
13556.4
11745.7
-3792.18
8188.44
5458.02
-1874.34
-3481.14
-9997.56
17749.7
-11015.5
-6861.96
1790.74
1657.5
14440.3
960.04
-6375.23
9338.02
6924.08
-730.737
10212
-24418.9
-6197.14
11.3158
627.921
-718.497
-1282.77
3446.88
2843.9
3020.3
2559.1
-3121.1
-2256.8
-3406.04
1410.27
9743.59
-10714.3
-2985.92
5767.37
-6387.14
-11684.3
-9894.48
17874.6
-551.027
2794.71
-7285.48
-6485
3886.81
11971.1
4986.93
9155.84
2449.72
4499.57
4863.12
4150.06
19488
-10357.1
-9866.16
-10608.5
10015.4
5266.76
-5196.7
-6696.76
3861.61
16321.8
8744.05
14387.1
4076.2
-7645.21
3489.88
4394.51
-5058.64
-9665.16
11107.8
-9797.2
3242.02
597.574
7780.96
780.085
3664.47
16724.4
4464.52
18169.6
6391.18
-2932.96
14172.1
-9419.97
-2617.2
17167.2
-1771.38
15967.6
-1713.71
-1177.21
196.513
-13472.2
17254.9
-6362.94
10831.4
2935.7
-6533.12
2884.1
8594.84
-4689.94
2141.57
6123.51
4560.81
-2666.72
-15474.8
-12480.6
-6435.83
-7339.37
6862.05
3136.5
-916.679
-5389.44
-10798.9
7835.48
3272.81
380.437
7414.19
-306.575
-4813.57
-5145.86
-9929.13
1292.73
15339.7
2153.87
312.267
-2665.09
13553.6
8905.98
187.634
1718.89
-21733.6
-4707.87
1562.31
-1531.19
6710.04
2379.18
-15077
-5488.7
-8209.04
7749.52
2206.78
-4037.74
12368
-15686.1
-3472.12
-3991.39
8077.27
9206.82
6546.68
-9638.89
-712.285
11338.6
-9841.36
-9939.67
3998.66
-497.04
-5336.17
2527.28
-12009
-15282.5
-716.205
-10383.8
1487.1
5186.4
-17206.5
3611.71
-2879.22
-12531.6
6252.25
-9328.83
8281.66
-7314.91
14598.8
-102.134
5148.82
-813.335
5683.71
3178.59
3543.18
1790.08
4753.46
5780.6
1632.78
-9177.83
23231.9
-3094.36
-186.281
-1927.97
12388.2
6070.99
1541.97
-10846
274.059
546.555
7143.47
15802.6
-6347.37
1002.67
7436.48
-367.98
4265.78
13766.1
-2964.47
2991.52
-10317.4
6962.27
-3681.79
-1930.88
-8457.12
-94.4421
9407.73
-2902.9
-3443.95
-188.999
-5616.4
2989.28
1489.28
1095.59
2028.16
-6572.21
1072.01
2955.1
-215.666
-6289.99
-703.242
5004.59
-1666.05
4830.01
6834
5817.84
5983.2
2942.14
1611.08
17854.1
-5068.94
4523.44
-1728.26
-3005.26
6460.83
1577.59
-6861.98
6153.27
-7205.32
1866.93
13207.2
3044.65
11641.5
-1209.7
-14074.7
3117.51
9195.84
-17581
-5306.9
6704.03
-10819.3
-10488.4
-6079.66
-6745.32
4490.29
-5804.21
-10752.5
-3719.38
3275.37
24406.5
4988.31
10444.3
1327.3
1981.19
2222.01
6745.03
9295.27
-7641.49
8586.32
698.32
1112.42
-5277.54
743.276
9355.81
-6127
3862.39
-4897.59
2322.48
-10608.6
-404.619
-12906.7
-3992.9
-11308.2
17756.8
12923.1
-5528.21
1309.73
13304.4
-3275.65
-5700.22
19934.5
96.9264
-1775.55
985.512
-5131.13
-4621.86
1235.08
6250.96
535.709
4210.49
13828.9
4087.33
-2585.36
-3507.78
-7144.87
-2269.67
9536.05
11752.4
-14321.1
-959.406
-113.88
-6651.44
6638.33
3893.07
4219.91
13571.4
23075
-1536.25
-525.719
9443.45
11404.8
-16928.2
11890.7
-3774.77
-8865.07
6028.96
-5144.28
-12000.4
4955.75
-11001.2
-9921.64
458.003
8820.05
2106.98
4942.95
-8267.07
-10284.6
-9620.4
6326.14
-3087.43
4755.61
7254.16
-5588.07
10444.3
-4694.3
-4783.86
-1834.09
12375.7
1422.49
7668.98
18662.5
1459.34
-3696.77
6627.42
12032.7
-673.727
15574.8
2468.36
-5361.34
556.598
6343.68
7840.61
-4700.18
6529.31
4266.74
-8444.42
20626.7
-699.9
-11429.3
6744.03
-5445.91
-5597.16
-9687.05
-967.411
12383.1
7052.51
-6405.78
4716.47
2016.48
-1990.56
30535.6
11658.9
-14044.1
3386.98
8199.83
-2042.65
-12365.4
3138.03
-8566.19
7509.93
-2606.34
10617
4425.33
4881.04
-436.76
11947.2
-3715.19
-6123.7
-11210.7
5206.18
-4192.81
1224.82
20225.7
-9949.7
18237.6
16516.6
5745.19
810.773
17588.8
2814.87
-6142.04
-938.86
-691.541
3242.1
9304.67
7931.96
3681.13
9947.81
-1301.32
3041.97
-9411.71
22479.2
1069.79
-412.384
1024.6
-6025.72
1114.49
12490.2
21137.2
3617.79
-3366.78
1471.05
7077.18
-9233.97
-100.688
-7866.46
-464.72
-1807.47
6418.68
7292.8
15098.1
-2217.2
-3294
2287.04
6155.34
-2154.26
-10671.5
-10437.6
-2285.43
5133.66
291.694
5198.85
-2711.57
-3768.14
14605.7
-8411.93
10750.5
-8982.02
-348.283
2781.27
-871.194
-9073.06
-2467.13
-15207.7
12322.7
2568.21
-6459.18
-2029.11
-1581.49
394.797
-7533.64
3878.32
9307.51
-634.919
5878.28
2199.92
7218.43
-357.552
-1430.06
-13279.4
1169.09
-5634.91
9799.47
-5237.28
21.7124
14215.4
10548.3
-5502.59
5412.1
6878.43
3402.15
6640.4
5426.21
-1574.74
-1892.96
-2884.13
14938.7
6213.22
-4374.03
12264.5
2823.53
2910.67
-547.669
-2579.71
5317.37
703.159
4174.82
1787.87
1156.01
8412.57
-15984.8
647.162
6929.84
35.6259
-4321.69
6134.56
-9460.76
812.599
-17458.9
-8454.99
-1143.52
-14622.9
-13954.1
2428.04
-2249.88
-11512.7
-12166.1
-10028.6
18275.4
-3395.37
-619.486
-1297.3
2532.64
-2385.04
-8588.59
6527.48
-5521.7
-1453.98
7471.98
11190.9
-1894.65
5311.76
-7531.79
-6112.09
2961.3
12989.8
4958.43
-16924.5
-910.307
-5906.18
7682.39
20309.2
537.797
-3908.16
4208.9
-1413
-2194.15
10650.5
-2875.96
6991.34
-6554.46
-4607.54
6020.3
-6123.53
-4628.68
5933.49
4581.64
-7160.45
4619.61
-1348.63
-3742.97
-2454.39
-7756.3
-9404.21
6041.71
-4840.7
4171.35
-13621.7
-6214.86
-7912.08
-10579.7
-7951.93
-6133.79
-5820.64
-9950.84
7214.63
10952
-3748.86
-1018.13
-9449.4
-5129.05
-2984.66
3736.73
6381.63
-784.409
-9261.37
-7169.97
-11337.6
-9277.44
4073.6
137.061
6691.12
-1518.76
6736.33
-8050.85
-3754.61
18190.7
3249.98
-9609.65
4910.4
10041.3
7105.16
-1193.01
2549.32
-5550.13
-11654.7
-2563.62
1535.48
16171.3
-16938.4
9209.11
-2897.93
-4207.95
-2140.61
-599.013
-2417.35
-1903.34
303.82
8156.85
-7011.71
-893.473
-7461.92
-2626.49
-5552.57
939.33
2723.08
-5599.69
-15268.6
4105.41
-10945.9
-3507.49
-16690.3
10267.2
-7737.67
-11232.4
3849.12
-11263.9
-5965.17
-3419.95
7390.41
-4339.28
-2660.92
3937.1
463.073
-13066.9
827.866
3914.99
533.408
6254.97
-1806.35
-3918.14
12146.6
1521.89
3025.06
2540.72
-10636
8325.27
-8678.68
-9260.95
-7844.6
-5605.63
8164.04
-2482.45
-1527.4
3920.2
7762.99
-5597.5
-2269.96
13356.2
5683.39
-4427.31
-9072.66
-3176.51
-4508.67
20029.2
339.267
-895.062
4486.57
-3854.54
859.417
5672.83
1678.8
-5974.24
1345.41
-2374.55
-18846
-1635.17
8232.5
9891.36
10962.3
-2471.49
13386.9
4556.34
-8768.58
-11523.7
4345.85
-14617
-3013.71
-6641.32
-3905.36
881.784
8678.23
-3628.06
-218.893
11306.9
10765.7
308.186
6502.6
6666.75
-3221.4
-14828.8
-4058.12
7893.94
910.406
-2649.77
-5186.56
2673.42
-14487.2
423.679
-739.037
-10537.8
-4265.7
-862.241
-6442.06
1603.88
2773.26
-1703.87
-11198.7
10040.4
3940.79
-6232.06
-5949.61
1212.47
-12812.9
8851.83
6447.06
-19.4944
8291.38
7626.28
2666.58
-3189.14
12693.6
8528.54
-9841.6
4981.94
-2737.95
-6054.34
88.4855
1996.18
11274.5
-8968.86
-12942.6
6704.73
13557.4
-3361.71
-1948.33
-10413.7
27.5946
-23264
-5064.88
-87.2684
5300.65
12710.1
10453.4
-14750.6
5616.83
-755.289
2121.31
3050.78
-10458.8
-4709.83
-5342.61
-2945.56
-16776.1
12545.6
-474.616
23387.1
-4651.13
-341.691
11581.4
546.01
-4319.55
-1423.15
-1240.36
941.67
-1329.22
-2819.33
-797.426
-8542.84
-2092.96
-1060.48
-7681.34
5607.65
-5736.11
-2292.45
-12028.8
2292.47
20761.6
2811.7
-10842.7
-3076.29
-2736.08
7859.5
5998.96
3545.77
-5907.53
-12205.8
8179.8
-5121.76
-5907.96
1504.69
3025.75
-1586.29
8753.74
4304.66
-15530.1
-4049
-9410.61
-5495.24
-5389.64
5661.99
202.953
-9531.11
3245.31
1489.48
14609.9
-210.357
-3848.11
12849.6
3234.6
413.115
3659.29
-853.067
3211.16
12403.3
226.25
1721.59
6514
5271.83
-3868.96
10324.6
-8539.79
5027.93
-2690.64
-2238.3
-13700.7
1315.63
3670.67
-15603.6
-3320.37
896.331
-322.204
-2780.5
-2807.49
-11039.4
-1903.33
-3231.12
-4058.98
1592.76
-8484.33
3707.31
-7454.18
-13641
-1163.7
9977.33
-18926.9
-7434.81
4335.9
1605.14
-531.035
-3607.43
1922.78
-10716.7
-960.559
1184.29
8693.88
1908.23
6467.07
5902.18
9884.79
-2535.29
8100.27
6201.77
-26.8219
-2681.11
468.995
9589.14
6714.31
968.695
792.278
-11840.8
1745.16
-5068.38
-6188.74
-204.544
-3988.73
2109.81
4927.35
11011.8
3273.81
4248.7
10618
9840.32
-7576.66
4344.24
-7623.85
-2560.36
2934.17
-3880.31
-7792.31
1815.52
-9010.69
10999.7
1411.06
-10069.7
-1994.82
-6661.96
-8042.56
4850.24
4051.84
-7059.79
374.518
-3968.54
4342.98
12975.9
-2611.18
4841.25
-1034.29
-7663.69
6744.07
-5935.85
1750.07
4678.38
-1545.9
6155.68
11820.8
1217.8
-1497.58
4149.44
-900.259
9532.53
-6022.53
1230.59
-2379.61
620.41
-7538.87
-774.356
7735.47
3307.96
956.771
2529.12
5386.45
-11754.4
961.539
-1015.27
434.857
208.419
-3995.72
-442.291
-3950.91
4996.23
10266.3
874.929
-3379.17
-473.52
-8856.57
7575.98
7878.99
-5235.47
16313
-1109.58
1876.62
7393.69
-175.764
-1456.44
4856.83
51.9862
-7759.99
-8652.76
1189.31
-4158.93
-8329.34
-6411.23
7385.24
8844.84
675.556
132.559
7230.71
4835.94
-4533.83
6287.4
-493.829
-2715.76
-1572.24
136.483
-3857.66
-5570.57
1658.24
-8522.99
-1796.51
-12908.2
13213.4
-3545.29
3015.31
1744.19
5055.99
4879.89
-11858.3
9216.8
11699.6
17.5524
5862.31
-2800.45
9211.09
2435.75
4766.17
-5638.18
2466.78
-3492.89
213.913
2739.29
-2110.52
1784.88
-1635.7
-4451.07
3646.52
14550.1
5298.51
4151.09
-3195.31
3958.13
-8391.58
-1949.39
11767
-7914.87
1868.37
1971.5
-4802.93
2901.29
7028.51
3209.77
8077.82
-11683.5
1812.11
-13743.6
3593.89
-378.894
-16670.6
-5258.24
-8541.09
-8378.85
-13727.4
8407.17
-7503.48
13358.8
-3553.65
4031.62
-986.898
-18516.4
-13165
-3654.86
2860.79
-12628.3
331.155
1336.73
1698.29
-11498.3
-6337.82
842.163
-3300.25
-3423.96
-2474.63
1205.17
-5447.26
-5166.61
7727.88
11836.9
-4356.81
19529.2
-7373.73
5637.39
4555.31
347.122
-817.119
14168.7
-3094.35
-917.374
3275.05
11084.7
3817.2
-3920.81
-7014.04
-329.424
6480.77
-4316.93
6159.3
-8191.88
5714.3
3185.78
4038.61
5157.84
5071.5
713.501
-2668.86
-2640.71
-2237.35
1741.31
-12883.6
-2554.94
11702.2
10348.1
2773.52
-1728.64
1609.65
3990.06
9687.23
7783.29
-12756.6
17265.9
-448.883
-3434.52
137.638
-8206.44
-14208.2
3427.82
-9700.15
-14028.6
554.688
13865
-16143.5
-10858.5
8008.18
1734.09
-7947.27
-5529.52
47.275
-8493.17
-10720.7
4523.54
3668.25
-1367.48
-7096.12
-3668.22
-8634.79
-11941
464.039
-438.319
3066.69
-14293.7
56.418
-168.345
17179.8
18764.9
-3576.79
1633.83
-2244.43
-6539.93
-905.669
-5708.21
-8666.65
2586.66
-2020.24
-2960.85
2326.02
2137.54
-2293.57
-701.105
-11098.3
6263.64
-5421.83
-14756
-3595.07
-3628.98
-3844.75
-8126.69
11386.8
7730.27
3444.33
-8562.55
-8133.87
-2598.88
-2740.75
3099.67
-1354.16
-5362.3
1166.61
1992.13
-1459.2
12805.9
-16411.5
-6061.06
-13010.6
-8741.7
-4454.09
-2305.05
11048.5
-13373.4
-2584.84
-8888.9
2548.26
3598.04
7827.3
-7987.89
1186.08
-2367.21
-1033.09
-5215.74
3370.84
-9612.55
14275.4
5302.69
7786.21
4314.43
-4552.16
-10887.4
-265.387
1906.36
-1397.59
3794.3
-3984.26
710.188
10040.2
5550.96
-7140.42
8038.93
5605.08
-7072.48
-846.838
-4815.25
5350.21
7027.18
1139.07
-21.316
-6445.22
-2962.15
7614.07
-3582.5
2240.49
2187.77
5282.09
6117.94
4473.9
3142.44
-7043.18
12344.4
-72.9526
-493.448
5730.91
8333.95
8820.81
-20310.3
18274.5
-8140.82
-3080.16
6611.69
-562.589
12319.6
9503.83
-3461.22
-10066.3
7415.47
2736.29
1119.66
-11723.1
4855.15
-1898.88
13251.6
-14639.5
5445.36
3141.43
-11955.3
-8042.87
-3702.35
16810.3
21943.3
4606.19
5377.41
4324.06
5706.59
5892.5
4472.54
11829.1
1426.25
-4790.29
4651.03
-2670.11
-8979.56
928.253
162.341
8842.93
5287.74
-8404.75
-256.05
-7056.78
-5255.4
5348.68
-5572.78
-1398.84
4563.28
14881.2
-8903.81
-5854.39
13725.5
-6256.66
799.225
81.7705
-8607.21
2674.68
9171.57
6292.79
-2156.17
1342.28
33.6234
507.419
7930.27
-10676.7
4919.81
8697.89
1038.63
-6074
-14261.7
8987.57
1723.99
-3672.73
-2805.74
-3423.91
-11548.4
-649.781
-1174.94
-4701.28
-4973.14
-15908.3
1524.34
21977.2
-6403.21
-3752.18
-3080.22
-16511.6
-7430.48
15029.1
-14875.5
-9373.15
12314.5
203.175
1034.16
-414.202
-19583.1
3929.25
2412.01
-12718.3
-1514.17
12441.5
-14423.4
10050.4
-5052.73
6146.14
-14234.9
-2231.35
5640.28
-749.218
-20814.7
887.673
-17295.2
-2807.55
125.915
-4815.22
1110.97
6000.51
15611.8
-5683.68
15256.4
4277.77
-5689.35
20257.5
-4530.45
-8210.98
20276.6
-3713.65
1747.65
-2646.8
-4274.75
9114.74
541.494
-5082.08
-2183.59
1212.94
5050.39
8154.14
-5358.8
-6177.17
-1930.73
-825.474
-579.5
-8766.28
16665.8
-12590.3
-2996.85
3492.99
3073.34
13471.3
-3757.34
2790.04
-9885.16
709.811
-7577.06
20849.4
2185.97
-14817.7
-11760.7
-9491.29
4332.39
-8412.03
2027.31
-4655.92
3986.99
1269.74
16640
1324.25
-9171.57
-8402.36
8155.33
4429.19
14400.4
-1997.28
6328.28
-3820.07
-858.231
10829.4
11427.1
-5247.59
12883.5
4152.69
-13082.1
3789.64
-4968.83
11701.7
5558.23
1688.91
-2049.72
4414.91
865.898
-10230.8
-5875.92
-4015.3
1671.87
-2786.77
-1839.21
-12851.6
-3937.77
8948.21
4408.87
7869.67
-4281.37
-10426.1
2516
-10159.6
-3448.91
2511.36
3728.57
6416.9
2967.34
7045.98
-2468.47
-541.912
9286
1226.07
3316.55
-7378.19
-333.972
-6092.2
-3730.91
5440.65
-3638.95
7007.56
3435.93
9933.48
866.862
-5611.88
4980.19
-2960.73
-8468.29
-16566.1
4127.47
-6160.99
-11807.4
-2045.51
10422.4
-7663.2
1437.91
12112.9
7863.22
-1026.89
-2088.81
-3004.27
3106.76
5075.43
4450.61
-2942.2
10333.7
-8753.85
1404.16
3165.62
-6554.19
17067.5
-5425.07
-13983
-8800.72
-4063.78
1117.68
7059.96
4202.84
-6986.1
-11015.2
-3086
4857.14
-6550.97
3923.36
11770.6
2879.47
-1671.79
1697.08
4895.28
8658.4
10359.3
7004.35
-4441.39
-8474.29
-8250.11
10148.7
5826.22
20053.2
-13016.2
6508.48
175.687
3562.47
-14531.9
3509.99
-725.996
8200.48
-8462.68
8260.95
-3108.45
-8647.22
187.811
-12066.7
3186.93
-14578.1
-6291.44
1400.38
-4354.45
1933.5
3520.84
-4905.33
-3838.31
4323.81
6046.01
-3034
-4708.37
965.921
-9329.06
-1092.19
-15987.3
-10714.5
14169
-764.993
-6064.41
-4917.83
2927.93
-2377.71
-5084.18
-4151.49
3462.79
1630.15
-8873.33
11969.2
3284.69
-3650.33
9521.98
2261.54
-587.976
436.375
-4654.48
-3373.24
5861.67
5350.7
-1038.92
979.163
-3216.6
-450.827
11183.2
765.516
13046.6
4669.46
2500.18
-14035.6
8706.59
-7911.88
-3654.25
-11576.3
-12548.3
18102.6
-7320.89
-6231.79
-3269.9
11314.7
-6481.66
-4094.54
-12237.8
-11259.6
8476.3
-7220.12
-6369.72
342.792
5767.57
-15260.2
-8171.28
7225.19
9736.7
3833.78
-5891.06
9732.45
9833.4
-2295.38
1580.98
-10115.2
12568.7
17551.2
9648.5
-566.364
-130.988
-7173.69
1689.67
-1284.6
3969.28
-9363.56
4530.07
8244.84
5252.06
-11628.7
-7427.18
-9431.83
605.413
-1406.54
15919
1361.48
-7326.68
-6295.41
3319.13
2852.23
-11207.8
24791
-6308.66
3310.03
6619.88
-6051.47
-9113.91
-16032.5
581.214
-6135.35
-5668.2
-8547.01
8231.68
-4141.09
-885.284
-545.672
17088.9
-4695.36
10253
-1512.91
4701.32
16859.3
-4504.25
4442.98
-6586.25
8734.28
-5513.27
13286.8
5721.66
1924.92
13093.5
-14956.6
7706.7
-11286.1
-5693.66
4822.94
4630.22
2378.42
12940.8
12922.5
3488.35
4753.86
11827.3
10233.5
15761.1
1090.09
2839.38
7086.66
-2813.53
-6677.71
-522.522
-2831.42
6289.87
-4659.61
587.792
-2555.56
4116.39
-3962.42
-8796.91
7546.58
-5815.66
1428.55
-7809.14
-10297.4
-4978.74
-5565.01
3218.48
-6368.9
-3334.18
-5729.08
12470.4
-7323.13
-2771.48
-7853.62
-6519.14
9694.93
-15494.2
4928.55
-4118.73
-12171.2
-7681.07
-3783.71
-784.706
-9208.17
-2812.25
-4723.21
20974.2
376.82
-5940.68
-6882.6
-2507.2
4810.62
-17.0845
-4981.1
19802.6
-17835.1
-10731.9
8771.14
-11628.7
-11985.6
-8956.11
8832.5
-5636.1
2235.68
2002.34
-12023.7
-10248.4
6193.66
663.598
4232.12
-6237.19
21812.2
-2230.08
-660.14
-4369.42
258.437
-3939.63
-3622.13
-5204.1
1499.22
5983.34
-2817.2
6247.18
13896.5
-1396.14
6004.14
-970.818
6460.37
8200.32
2348.38
1386.75
-975.124
-15053.7
4566.18
6576.36
-3113.33
11059.1
-3634.51
2842.04
-4166.17
2342.41
11043.4
16663.6
2564.46
2691.65
-3616.18
-1662.57
6495.67
-5929.88
1781.15
4477.02
3699.57
-2831.22
9684.27
-2359.65
15799.3
-4599.64
12812.5
-5549.76
-5408.1
555.837
-3610.9
-7159.2
2366.89
6202.38
-22553.9
-19552.9
3314.78
-654.077
1087
2180.28
-2995.36
9994.24
-9203.13
-5983.91
-8075.79
-1491.11
-5926.38
2634.51
14954.5
-7330.16
-3435.97
1852.44
4197.22
4499.51
8875.66
2161.8
-3015.69
-9158.77
7797.21
-232.911
-16143.3
-6567.66
14239.5
-2500.64
8229.94
15013.4
-3309.49
2806.48
-1137.63
7939.35
4893.08
-11143.4
-4620.31
-2754.86
8178.7
-1586.93
-6578.26
11404.5
-4646.26
-2496.98
3297.73
-4250.94
-5922.88
-9743.22
8442.03
5380.18
4907.67
6080.47
671.603
-15323.2
10497.4
5954.2
-5100.74
-3725.34
-3257.29
-9866.14
-9229.94
-17803.4
-3453.95
7702.33
9056.93
6504.43
4927.8
19880.1
2164.23
-2206.7
8715.33
8327.52
2989.68
5644.82
-10891.9
-3074.01
-6097.82
1475.06
-112.288
-668.3
13931.8
8325.43
-4891.23
-12957.5
13331.7
9919.04
-9928.12
2531.53
-129.673
2977.25
-5314.49
-7418.1
284.531
-4013.46
-7514.07
-327.57
-10096.4
-530.2
4621.95
190.413
-11206.4
-3905.84
-4183.81
-6072.71
7004.55
6532.94
340.512
-23577.7
-9442.69
-5654.87
2320.75
2859.08
-880.005
-10172.3
-3079.33
4582.72
-3796.35
-3932.8
-1399.85
10011.9
-9731.04
4107.11
-9537
-3829.18
-1715.82
5316.86
-12838
-572.187
-4941.1
5064.45
7144.1
-783.364
3147.24
-6562.12
-909.046
7960.02
4423.18
5436.83
-6910.24
-3282.31
-5644.65
15757.6
2625.5
-8253.97
9391.07
4278.4
3702.71
-571.246
2581.53
1587.85
14561.6
10248.9
-8642.21
13888.9
3653.22
1754.94
220.888
-6077.97
3028.01
-5477.79
11188.1
1565.96
-3503.9
7850.85
5399
7699.18
10469.2
12521.1
7342.63
-7477.1
8144.85
-2477.31
-1882.92
-7858.19
-19837.7
4873.16
-10859
-314.752
-7253.02
-6613.34
12098.9
-3263.95
5814.54
-7999.07
7866.41
275.311
4050.54
-988.667
1147.69
695.935
5597.27
8742.58
-1025.19
4388.53
14791.4
-60.4862
11736.2
8300.91
7083.48
3603.4
5894.85
-8411.9
10747.3
-7206.38
-11987.3
12104.1
-3997.15
1412.26
-7359.78
-5973.23
-3165.31
-4283.5
-1330.57
6719.78
-5452.29
2455.29
6694.88
5596.96
-5758.83
3148.69
-6670.48
5038.15
896.825
-6968.49
-5173.51
3042.04
-5487.32
-2645.31
4681.23
13854.9
10258.5
-2533.73
-5763.45
-392.112
5376.51
-2603.2
8983.8
4796.23
-12582.7
4409.45
-13653.8
3405.34
1813.84
12280.1
5713.47
1937.19
-736.239
-2163.39
-1756.58
7797.8
4518.43
-18318.1
-628.365
-9485.94
4026.28
-7688.09
-3809.08
12132.1
-4146.75
5789.74
-3310.64
-8550.78
10175.1
-5204.06
12590.4
9472.65
-3409.37
-7635.21
-3260.87
-7774.95
8966.86
1425.16
-10249.9
-492.86
-3384.32
10824.8
-7558.55
5607.51
11459.4
13987.5
7775.18
-2614.99
8747.57
163.297
-1760.97
7618.03
-6447.02
-4837.8
6351.73
-9008.01
2615.03
659.397
-6253.64
11203.2
-2984.32
-8550.73
-7249.16
3868.62
-17986
-2888.88
-10668
5586.59
-4179.33
-19718.4
-6150.44
11244.8
-635.238
21759.9
3404.35
5291.64
-1800.04
2409.37
5443.86
2701.84
16888.1
-17748.8
5672.38
1745.74
-11959.4
-10721.1
-287.71
-6399.5
27.3872
10685.8
-257.368
-19431.4
532.105
-12046.1
-12320.7
811.51
-8959.27
4673.93
9983.94
-11618.2
-696.955
-4446.93
-13342.8
6514.39
-843.218
3679.3
-12907.5
-11293.2
4242.16
-7587
-21577
253.495
-8468.95
10646.9
-5406.95
6191.64
-2224.65
-8737.06
7047.9
3318.81
-7493.3
-5950.02
9982.18
-12671
6912.74
-9905.65
-7026.8
-14742.3
5155.98
2415.04
-5929.86
-4924.63
-459.425
-2775.58
-6691.62
5688.35
4452.85
-6985.93
12626.7
-6914.65
-5710.8
-4729.5
-6989.26
-2599.11
5705.87
6212.18
2085.23
-2225.1
-8214.21
3891.82
8710.24
2251.15
-2387.68
-1718.91
-2923.07
-2317.38
681.14
-7595.41
5911.1
-2286.35
161.942
-4043.18
-7942.73
3886.38
8556.48
-6696.53
-2938.62
-1330.33
-4946.72
-12047
-5513.36
2196.28
-12477.7
10641.9
216.715
-5960.36
-2590.79
4863.23
-3595.21
15453.9
-6174.15
6249.36
3835.38
3394.04
-5587.66
2765.16
-4045.74
6787.09
-13786.1
1403.04
5044.88
6976.06
-5916.17
8808.54
3656.46
-3787.26
-626.136
4791.51
-732.601
-3254.5
-4224.31
2449.7
157.684
-11703.1
14843.9
-1533.64
-7432.98
940.593
15486.4
7295.05
2769.11
-1705.07
-6458.13
-4941.1
7234.11
-13351.1
9522.07
-6536.49
-1273.74
-678.616
3396.48
-2188.12
1753.15
4989.56
308.532
1676.33
3319.34
-4390.35
5400.17
4092.12
4802.73
20189.9
2085.35
-1434.22
7317.05
3529.13
3034.13
16304.3
-9617.5
-1742.98
-3603.79
-9090.92
-2963.58
2221.76
-1230.98
1747.7
-6394.28
-2043.16
-4982.65
565.377
11098.3
482.638
-178.591
-629.991
-9680.24
-1894.35
3966.36
-10111.4
7519.7
-9006.85
-14512.4
3074.38
-1561.14
-1947.63
6310.62
7805.11
-4395.15
12766.8
-7729.21
-3222.91
-128.452
-2868.18
9715.77
-1639.36
-1318.72
-10430
9602.42
5934.96
1428.4
13059.5
-7308.01
2849.82
-8674.38
85.6653
-723.587
5517.25
140.699
3781.87
-780.27
-8388.23
7915.96
-5230.81
-5153.58
-14639.9
4501.78
11464.1
-3923.64
823.771
-3830.39
-2799.38
7029.27
2716.86
13988.9
372.649
9915.83
-12919.2
5341.4
-9038.96
5726.93
2253.75
9676.85
-13749
5751.32
7107.04
-8645.09
-1589.76
-4497.4
2316.47
2948.53
-2061.04
-25394.9
19249.5
127.201
-1479.57
394.131
2421.09
-4190.9
-15286.1
-10451.1
-2982.73
-11630.1
6637.03
4330.35
-11449.2
-1728.18
4846.06
15606.1
-1858.93
8589.02
7536.41
5570.67
6612.52
-13332.3
-6728.23
-984.681
1609.77
-14606.1
-10404.2
3736.02
791.688
-9759.16
356.738
10815.6
-8732.1
3986.63
8354.47
3064.35
3797.52
1207.4
4933.5
-16414.8
4135.4
981.854
-5757.73
-7501.09
849.701
-5000.8
9424.03
2737.38
-3242.95
8055.94
-7173.23
8039.97
3692.51
3816.29
2100.78
-11232.3
14275.2
8736.77
1457.67
-5658.84
2711.89
-9036.39
2598.24
4432.43
9842.87
4330.54
3277.21
-7923.72
-400.52
331.878
-3253.27
13426.4
-5535.18
-11908.9
14624.4
425.507
6921.08
-5785.96
11553.9
13942.8
579.095
159.568
-13140.8
-2160.94
-4370.78
-6870.57
-7151.19
-5300.14
116.778
3897.13
11751.1
-8256.59
5902.6
160.865
-9611.5
10729.8
13247.3
-6719.41
5871.64
1821.12
3221.09
-6951.45
3942.03
2734.03
4064.41
11325.4
-5622.41
-6853.57
11196.2
-7715.8
1571.26
-7046.48
-1685.21
-7684.38
-4209.35
11738.8
-5508.59
-11375
265.703
3850.12
-13905.9
-748.51
8739.61
-4700.81
18848.3
2585.38
9003.02
-17082.1
735.662
-9430.73
-10439.6
8734.54
-577.423
-2136.42
1608.54
-4442.46
-6080.31
4198.01
1424.74
2571.92
10145.9
2574.01
-5055.41
-3613.52
-13232.3
1421.95
-11465.9
-11557.7
-4054.74
7812.91
-1240.2
-13546
-2769.03
1885.88
3032.76
-13197.8
8041.58
-1820.59
17239.2
-131.988
-5027.22
3458.25
-3655.7
12713.4
17524.3
-12551
41.4144
-5089.45
816.316
413.232
1491.34
-5479.64
-6126.72
-2019.87
-18825.8
3328.03
-2291.35
7598.97
-8576.13
14745.6
-20175.4
418.96
8824.61
-576.69
251.78
11797.1
-3561.53
-9960.36
-125.724
-9109.14
-2791.51
5066.2
2082.92
-4992.11
14634.7
2416.5
-3402.29
4624.81
4194.27
9848.42
6983.26
-3714.48
13094.9
-2092.42
-5582.43
-5524.65
3710.62
-10853.6
-10742
873.229
-1297.72
-5803.04
-15637.6
10632.1
4498.35
849.931
-15492.5
1151.59
-6784.97
4767.75
-2989.37
4317.43
5656.91
-8831.54
4064.11
3827.97
3898.94
10729.8
6677.01
-1302.75
1564.96
4017.59
1725.6
13263.4
-16022.8
-6063.25
8753.97
13707
-7085.81
4650.56
8433.33
-5457.5
-4101.12
-1470.79
-2112.15
-2247.32
-4945.6
-3981.85
-10751.3
1234.76
-4407.56
3188.56
2418.07
-1685.67
6446.43
4355.66
1278.52
282.865
-9348.18
2074.09
8231.59
-6623.93
-1954.59
-23084.5
-6772.26
-2469.52
-3965.99
9686.22
-8923.51
-14283.4
8065.51
5445.43
-9777.06
12778.9
5832.51
-1399.39
471.393
-2637.59
-5409.6
5352.86
9400.21
1465.83
15514.1
-987.889
-9202.19
993.32
22399
5844.89
4905.51
-3294.92
-3411.38
-3964.52
5820.03
-11114.2
-3299.01
5240.42
10673.3
435.03
1464.17
-20300.6
-4586.14
-2521.78
4850.94
-9267.77
-6986.82
464.681
9991.44
-458.814
6931.79
-5051.8
-4658.33
16740.7
5204.49
1506.4
-2195.75
-11454
2118.95
9541.15
6431.45
-3295.61
1864.2
143.365
-5004.47
4401.29
-2462.96
-10247.8
-8791.15
-11994.8
-3840.09
-847.393
3133.96
9968.86
-1349.7
-7323.45
1172.31
5328.33
4209.62
-1991.66
4699.75
413.484
8196.1
-5606.74
17382.5
-216.271
3203.12
14420.3
15137.3
17848.2
-7566.36
2602.58
-5905.29
-1221.33
-1823.3
-2614.96
577.511
-7409.17
9783.29
-465.807
11350.9
-4165.72
-1188.64
-12540.2
2141.92
5502.52
-2095.4
5748.53
-6520.83
-9778.04
7301.24
1886.18
-14374.5
3092.16
7725.21
1880.33
-5893.89
-7993.54
6978.08
366.399
-9449.01
-12946.1
-3591.01
1011.65
-4003.91
-8627.74
3535.49
-18287.2
9355.12
-1054.14
-2770.72
-309.852
-1315.97
10950.4
-1660.45
-3045.06
-8854.77
-9287.93
-1483.07
-374.015
10166.1
431.335
750.36
4314.05
1902.3
5077.07
12900.6
1214.1
-6986.87
-5491.15
-3066.94
-9164.08
4841.49
-4121.13
-1336.84
5254.28
3537.35
-14363.5
-6909.31