# vtk DataFile Version 3.0
PFC simulation results
ASCII
DATASET STRUCTURED_POINTS
DIMENSIONS 128 128 1
ORIGIN 0 0 0
SPACING 1 1 1
POINT_DATA 16384
SCALARS psi double
LOOKUP_TABLE default
-10037
14774.5
-4337.9
16616.6
12908.8
10118.9
9988.11
4187.29
-4414.96
5057.84
10912.2
-2274.88
3067.25
3067.6
-5034.33
-14784.7
12065.4
-988.83
-1117.1
102.479
4630.03
-5119.49
-529.061
-5487.22
-13376.9
-19435.2
-2183.43
-20097.6
-9922.17
-17551.4
-3682.64
-12033.7
3651.14
15437.1
-10082.6
6340.19
-836.102
14872.4
11157.2
13882.5
-6192.03
5124.03
2240.33
2338.67
-2729.95
6024.18
-1542.99
4821.52
12501.7
13117.9
3182.77
-9899.48
17529.8
-12169.1
9496.09
-6647.96
1135.96
595.684
-11656.7
-14700.8
5002.15
-9720.38
-12806
992.465
10892
17274.9
3110.32
9317.6
-310.851
2274.44
-2161.9
-10938.5
4547.47
3772.16
-7795.66
2288.17
344.97
-8560.18
-27564.4
7415.3
4539.58
18650.9
-10083.6
-991.823
15102.2
3392.86
-5537.6
-10324.9
-4453.04
4651.5
11123.3
715.573
-4200.83
-5561.15
9980.71
153.504
15694.6
8100.9
-3107.64
-20910.6
13791.7
2917.61
-6280.84
4804.69
1127.71
-11138
1864.35
107.182
-19062.4
3429.66
13739
6684.37
-10990.8
-13951.9
-10662.4
3863.81
-16133.8
4838.45
-4051.69
-7405.78
62.6276
9122.23
-5833.54
-2280.65
11004.5
3062.68
-10014.5
-4431.85
-5380.84
-10072.3
10489.4
-11007.4
-2656.71
-2579.7
-4878.99
2564.89
-3041.04
-22559.5
-4381.8
-8819.81
-5268.74
-13377.8
3293.88
-848.638
-9745.01
-6456.13
-8492.29
10729
12779.3
-2357.58
-813.774
781.291
2531.78
-1213.52
-7723.57
-6194.31
-15931.9
-6551.86
5445.53
-6190.62
5287.31
-2138.99
1446.22
-698.527
-2674.1
-2702.03
6251.77
8268.48
-2009.79
8248.5
2739.7
-1582.06
8070.68
2247.93
6864.05
-4458.39
-2284.04
20196.8
15852.9
3118.12
1876.72
5455.9
6297.16
7676.43
-13222.3
5303.36
-4061.92
-3603.17
-7638.71
-5727.36
300.528
-21809.7
1969.59
-13819.3
4517.14
1239.22
10889
6117.32
-8238.48
-8508.75
-3922.2
-1916.08
3955.48
-9775.16
-3291.93
18643.8
-22520.9
11313.4
-19079.2
-6767.39
-7936.76
-6475.69
4051.83
-977.228
-7883.63
3715.25
2786.84
3554.03
4134.41
-7092.04
19147.6
-138.975
2141.02
1056.64
8425.93
-249.127
-3545.6
4386.01
-3551.71
10210.9
-8857.87
-2704.21
-4926.19
-116.593
-12138.3
-3892.48
458.451
7099.05
823.067
4863.76
-2661.55
-4654.68
-922.382
-9786.17
-1166.6
6155.4
5843.56
3864.84
-10547.4
-4323.61
-13044.4
2844.54
9768.92
8219.9
12538.8
3320.91
1032.45
7207.42
2799.65
-1864.57
19105.9
2336.14
-9993.06
-6770.3
-8165.16
-991.99
-2584.23
-1444.3
-5317.59
5767.47
-3345.46
9464.72
-4473.33
11181.7
-9027.09
11008.9
-9657.63
-1709.52
6485.04
-340.587
8612.01
-880.092
-5010.03
-860.055
-10456.7
-1601.41
3700.37
-1116.57
11279.9
1313.85
-1699.55
-453.157
15656.2
-2755.85
7384.97
-11309.8
10414.9
4413.89
-4498.25
379.455
-5351.63
-6078.64
-3924.43
4431.74
7337.96
13568.5
-11420.8
10328.7
7334.36
-2233.85
-8882.8
3843.66
2886.42
-7717.36
-12690.6
-5079.25
9905.57
12025.7
-1940.54
-3069.93
2070.22
513.891
-1673.43
-3607.64
-2683.87
-416.593
4908.31
-6893.77
3130.27
-5425.37
2044.5
-8514.42
-1660.36
3327.33
-7780.01
7700.05
2852.38
9740.43
-8353.63
-4990.81
7016.3
4562.08
-1230.6
-4341.46
6398.7
457.737
-3257.09
-11949.7
5291.03
14267.6
-7637.47
8189.25
-2064.29
15914.9
127.666
-3272.02
-16.303
-3497.35
1954.28
3817.07
-236.719
627.036
-13158.8
-192.666
8597.48
10251.8
-1155.17
3449.69
-2543.11
-27826.2
-3442.34
-2123.35
18565
10273.9
6837.75
4418.1
10945.2
2543.94
-3788.85
7651.69
5358.4
-3132.09
6086.46
4986.64
-2720.67
-4187.64
-8986.67
8605.58
-7774.66
8998.13
1774.52
2616.53
-3041.64
8829.88
3290.73
-1451.51
-2263.13
-3755.61
1158.61
2884.93
5358.25
436.293
-13795.4
-4568.85
-225.289
13443.2
-8234.82
-8814.36
-14096.7
11406.7
-4051.02
10362.6
-427.812
6427.46
-94.8249
2333.22
10797.1
3316.77
-10.3834
9245
3262.55
11158.7
-826.812
2524.53
4538.74
179.29
-8737.11
6572.5
4571.3
-8718.39
-6978.24
-6773.12
3410.2
-5924.63
-13798.7
-7960.2
2013.42
-2523.58
9634.64
3204.29
14159.8
-8923.81
-7982.25
-1820.95
-9190.72
5049.74
-10441.8
-4635.44
6469.79
1900.74
-2751.26
-3137.58
-22952.3
3958.94
2480.2
88.3322
293.354
-4510.19
-2061.5
3429.56
6456.61
-6901.43
-3728.7
-10923.2
7661.81
-457.052
-283.461
-9210.84
-5471.66
-3863.84
-6684.09
8433.07
5954.98
15343.8
-4875.25
4574.85
11128.1
-9084.28
15695
952.464
3336.62
8213.7
-5477.83
3527.49
3459.53
-5348.68
-6858.68
-2146.62
-7635.71
8278.8
-3573.89
1183.44
-7368.02
-5435.03
1985.39
215.28
157.475
14086.7
3190.03
3620.66
1724.87
7968.85
-4887.45
-5304.25
-19964.2
2729.9
9966.17
-7940.97
-11034.8
-8392.78
11245.2
-1060.37
-4927.14
-1425.81
-6138.55
4677.2
-9445.98
-833.026
662.161
1641.65
2289.08
910.182
2511.14
1344.25
-6788.46
1660.09
9761.48
13296.4
-1719.73
-5654.22
-3404.9
-3610.24
-2508.91
-3540.17
-7111.67
11004.8
-10967.9
-4532.31
-4401.87
-16420.8
-3303.45
-15871.1
4658.09
-13426.5
-1440.91
-7822.15
-3898.52
3906.69
-8991.33
14588.4
-3388.76
12745
6256.17
15968.7
-4003.16
8417.81
5222.33
16645.6
-1308.43
-7483.58
5486.84
-1323.34
-7399.42
-8636.01
-7347.81
1888.81
-2851.65
3679.26
437.062
-7512.26
-4626.14
-10024.3
2444.93
-8908.97
-7080.17
3290.11
-6578.31
6004.26
344.808
488.791
-5616.82
-4685.19
2620.38
9056.55
12643
-4828.32
1438.19
-3748.11
13370
3553.7
-5381.93
-6153.23
42.2169
15569.6
5635
2306.45
1115.66
-2354.84
-966.286
7869.81
12387.5
15614.8
5571.13
-1665.12
-6061.5
-13691.3
12233.2
409.599
-3792.96
-14227.7
-17245.6
16344.9
5836.89
-5903.68
-7595.75
-21773.3
-1833.78
-8736.61
16912.9
5433.81
-6680.79
3653.7
-5759.71
12197.1
6634.76
-18748.4
-6064.2
-13400.2
-2061.68
8801.88
-3263.03
-8225.38
-7169
4871.01
5716.21
6531.58
-4241.41
-1475.44
11796.1
4302.46
-15318.6
7428.82
-4265.25
-6283.16
3129.97
600.651
3990.43
4652.22
3687.31
553.329
1821.97
12077.9
-3334.69
-8459.27
8025.96
-2646.57
18348.5
3863.36
1424.91
-1319.63
2647.59
5074.18
1241.61
-127.162
-7577.55
1086.42
-1402.44
-13272.3
2663.4
-3252.26
6465.48
-15348.8
-2189.71
6255.6
2415.88
-938.298
1425.69
6294.94
-9415.81
-10039
-483.706
999.691
-10189.1
-4817.5
-5128.55
10044
-1887.29
-5409.43
4471.67
-7011.05
-6426.93
-9311.93
-8515.87
-9197.06
-9654.78
13283.9
-1098.45
4005.54
2404.32
631.191
7988.66
8696.31
-2298.51
4744.08
204.373
3000.19
11759.7
6309.85
9350.01
1542.77
-5623.5
3615.78
7648.57
5743.97
3790.28
-2848.84
6200.58
5209.76
-10950.6
379.078
2795.72
2747.54
-3415.84
-3626.02
-2773.92
-8150.27
6927.7
-15555.2
751.668
1161.32
6068.73
7680.25
-2064.78
-1354.11
-4810.78
-16104
-5826.48
-6580.01
12778
3476.17
-7178.65
-4918.28
-8542.05
947.113
105.357
-6888
-15947.5
-7367.84
593.456
-4032.45
-10956.9
-5813.55
-3492.8
-6386.83
-1712.27
-5259.38
676.244
-15265.5
-3201.69
-8986.71
-1887.49
-2730.57
-1435.54
2894.87
12122.9
-6033.19
-3970.38
9754.23
-2041.07
-1173.09
-2277.14
-7232.65
-6655.98
-14074
-6501.9
-4655.28
1923.08
581.363
5510.93
-4824.95
-5632.78
10612.9
-10997.6
4674.39
9352.53
-1324.75
1256.72
-12199.3
-14483.4
-2956.3
10579.8
6340.35
9071.12
-4671.18
-10140.2
-4437.12
1684.13
3365.64
-7635.68
-599.793
-69.7417
4129.84
9181.36
12879.5
-2920.02
2507.02
-8217.49
5919.38
6276.96
-333.056
-15068.1
-12805.6
5756.87
3135.73
9378.81
-11484.9
-8423.87
1198.64
-1571.4
2823.98
9491.82
515.167
3663.78
-6859.53
509.286
18863.3
602.185
9481.65
-9575.31
972.253
-4766.86
1844.04
-3834.57
-9117.3
-7452.44
-3713.11
-2325.88
-4978.07
8711.53
463.543
-1184.99
-388.593
-2813.69
16237.8
11807.1
4416.64
14986.1
9849.44
6626.36
7582
1749.69
-11048.2
3419.98
6723.37
9460.11
-15645.2
-2077.12
2639.48
7024.24
-4569.02
-9353.12
12980.9
2121.69
8882.7
-7369.3
6541.76
7056.33
-893.799
17092.9
-3515.12
8114.02
2243.83
14453.7
-6024.12
-16813.4
7278.28
5214.83
-1235.64
-9997.14
-4188.17
-6839.21
7768.8
-13245.9
5663.18
13577.3
-7130.6
-11176
8405.99
11111.6
3293.46
5742.57
-10338.1
2385.46
5059.57
-9775.64
-7731.93
393.655
-10946.1
-5922.58
-3194.23
2233.13
21495.7
-2863.64
2151.86
-11645.2
4605.25
9908.32
-9729.67
3156.35
7250.71
-11049
-721.938
-4474.43
1227.72
6804.67
3883.7
-10034.5
4430.06
-4909.25
-2471.93
-5333
-2489.45
-118.392
-1109.98
5584.03
8070.84
4933.28
185.329
-11628.9
-3956.69
1042.74
4156.69
-164.699
3403.38
-13956.9
1790.77
8526.58
9830.65
1729.87
-4441.14
-930.689
-6274.2
-9563.15
6918.76
4579.36
-13600.5
-15403.3
-13652.7
-2393.63
-3716.88
8314.89
4291.65
-5963.66
-9418.57
-6200.1
9998.63
2412.98
-8587.24
-6488.77
-4204.09
-9409.03
-981.753
-1583.59
-3065.41
-6519.04
-6974.31
-1815.32
-6142.01
4563.25
5632.65
-566.719
238.436
2663.1
-6666.42
8235.13
3105.53
4743.08
2850.79
-2209.57
1460.24
2604.13
-1748.25
677.049
-3828.66
1022.02
3166.25
9269.16
20042.6
-1647.11
473.558
6856.4
-1269.36
7216.89
-1064.15
12714.1
-13217.7
14054.5
-12957
4047
9336.15
-3032.91
5935.53
-3837.41
-40.5555
5292.17
-584.637
-937.133
7573.27
8804.61
8368.95
3859.91
5738.1
-4223.07
-8219.85
-4135.46
16626.7
5200.02
-8531.75
-700.63
-2494.72
2034.4
-456.697
-1930.18
-6978.24
3932.56
4129.37
-7841.6
-1690.19
4380.9
-10758.7
-1848.48
-2572.74
2954.21
-15541.3
-9377.79
-3194.67
8852.18
1459.44
-2816.66
20047.3
-2299.36
7818.19
-4206.5
4270.86
-2093.43
-2286.98
4836.63
9937.71
503.986
6791.33
-787.995
10504.9
-3542.56
-2683.98
941.51
-5794.73
-8230.1
3134.13
1930.19
3554.97
11025
1954.88
2013.81
-13828.2
-3744.1
13241.1
5898.97
6842.82
-8535.66
2526.16
-875.657
4117.14
-971.269
1048.94
-6193.05
-8336.44
3514.04
8405.23
-3379.46
-8839.35
-9332.87
-16780.5
833.25
-8460.87
-10965.1
-221.685
-4873.46
-6194.77
21058.9
-318.268
13113.4
-12532.7
-2433.66
-9950.72
10756.2
-8224.68
-6723.05
-1335.34
-2877.07
17895.5
2104.18
14903.4
7185.03
17031.5
19264.9
7154.14
5352.98
3418.86
5070.58
6936.64
-6915.5
-14004
1588.11
3051.87
4616.36
-7593.32
-10306.6
11703.7
12589
8636.97
-6901
-5658.21
-5039.36
11996.1
-323.827
3602.41
-3543.63
-1047.51
-3550.59
-11052.9
-1688.25
-8628.02
14067.3
6920.2
7316.11
3718.95
3203.72
-9810.96
4967.76
-17522.3
797.49
8671.98
1363.16
5559.82
-8124.18
-6538.3
10652.1
-1137.04
9796.98
-6017.77
-1931.57
11671.3
3680.05
5387.62
-8269.15
-5599.68
-6833.48
6874.05
-1361.75
-11860
-6969.67
-6131.75
7423.05
5359.77
-5559.22
-484.039
4056.54
-3604.13
-11653.6
2966.63
-1570.26
-2701.75
-5633.89
-10126.8
-10969.9
7290.92
4723.44
-11089.1
-6128.97
-17719.6
-4997.2
2168.26
-19901.4
-5676.07
2690.48
5943.6
2236.2
-7518.88
-711.461
2909.56
20700.7
4177.79
748.942
5829.98
5805.6
-6520.18
-15294.7
5414.73
6640.73
1530.79
-12321.8
-10388.4
9206.28
9041.4
-3214.06
1054.2
4588.1
-58.5298
5334.54
6417.21
-5414.45
16618.7
-1525.39
-5835.7
-11684.5
-1350.83
11392.4
-1372.89
-15564.3
-7116.76
-3384.54
-126.141
17185.6
2454.14
35.0661
-8298.86
-4049.36
4982.98
-4322.32
4725.06
-94.0008
7.95235
-2434.31
-2311.77
11860.9
-636.31
-11835.6
180.947
3200.59
7601.16
-1505.5
5928.9
-11862.4
-6596.52
-6720.11
-5211.59
1697.88
3578.92
5794.17
2953.85
4130.94
-7125.29
3857.49
-2538.26
-149.542
-5329.72
12082.6
1649.78
14482.8
391.878
-1674.41
12711.6
4643.49
-1705.32
-5899.42
3936.06
-3021.12
-5385.77
-12659.4
3039.53
8028.09
3087.54
-7249.52
-4093.59
-1299.51
3903.74
3397.22
-8680.03
-1880.2
425.456
-2942.83
15260.9
-7984.19
9377.51
-762.586
4647.25
-3188.34
3.09895
719.514
3942.81
-7674.43
-3121.98
-4025.94
8686.62
3029.09
-905.081
532.346
-4262.06
5272.07
-5250.19
13530
-10966.3
13830.3
-5841.21
2484.25
780.203
2508.2
-7417.26
10513.3
-15582.5
-4168.13
459.897
8942.29
12019.8
-7022.31
-3908.16
9296.27
8965.63
-2435.92
10858.1
-11455.2
-2654.92
-6130.25
-4931.09
14717.3
-1493.27
8111.04
-2579.34
13404.8
1424.22
-11169.9
-1577.98
-12080.6
5328.07
751.166
-5473.7
-3211.44
13924.6
-3923.18
409.84
7761.5
3729.7
-9382.49
1484.28
-1384.61
10714.1
456.136
-11790
-2179.42
-4557.32
-2278.13
2848.22
7068.16
-5078.92
-4615.36
1113.76
11102.3
-10609.8
-2973.45
-4299.39
2832.25
3811.65
-1336.87
9404.37
-846.496
10888.6
-8367.35
2819.29
-8386.83
-5887.85
368.121
-841.101
10226.5
-6276.96
-10135.3
5210.56
4021.08
3260.85
-1245.82
-7637.49
8016.17
2131.97
-7337.34
205.351
3236.46
-4550.1
-11918.7
10149
-7663.54
3561.02
-6790.9
9434.94
3645.13
21531.3
-4892.76
3242.18
12280.7
3597.95
19408.6
-4443.42
6368.13
2097.42
7287.61
5768.38
3302.03
5541.36
-6097.2
-8488.53
-4807.03
7792.77
-7670.82
7268.04
6518.48
-7561.28
1030.58
1158.78
-5228.18
3059.25
3129.22
-10059.4
-13863.4
13082.7
3415.89
5127.7
-2433.75
7673.98
4867.38
-5524.05
591.321
-5425.12
-1408.49
-485.275
-7165.78
-4338.21
-4436.49
-3622.33
3017.75
-9215.59
1534.54
3941.63
-10736.2
-521.913
-2292.47
-4722.36
-17866.8
8618
7917.68
-5337.7
-2215.27
-3556.48
3344.83
-4924.22
5611.82
4651.57
-7981.62
2690.87
-2307.34
2795.19
961.6
1615.28
-7279.09
6174.35
-9422.72
-8684.68
8882.77
2084.12
1047.25
2629.95
-5504.73
9240.92
-11071.1
12376.1
-16763.1
-9844.4
6430.66
-4873.91
-16307.4
-5739.85
6759.18
-3202.84
3996.24
-7381.11
-14389.7
1403.23
-10718.5
-9129.08
-11538.8
-2009.77
-5400.82
-13730.9
7255.13
10153.2
-10707.4
-2545.26
5092.52
-3776.09
-3508.58
8614.32
330.585
-16908.8
-6903.08
916.233
6465.72
-1440.79
3968.41
-5657.71
-1765
7341.15
3828.39
-10826.6
-2274.4
5832.94
-4063.74
-11102.2
9112.2
3139.22
1649.97
65.7325
-6832.1
-874.564
-2888.55
-2661.53
-1541.04
3933.23
6201.31
-9413.08
13566.8
-10099.9
4346.69
-2639.96
2167.05
-11179.2
11491.5
-5313.42
-8485.61
6188.79
5400.54
2855.54
-1654.23
651.966
-5307.53
-3098.94
2725.28
-1571.61
1783.84
708.055
2958.94
3139.23
6781.62
-10548.5
6477.12
-1790.83
-8039.9
-1942.83
6903.27
-5056.35
-12468.8
-10215.6
-4303.4
18726
633.075
-4152.75
-5916.42
-8127.92
489.233
-2384.48
-1061.53
-124.418
-1813.53
-3255.61
-2640.37
-9108.38
558.669
6961.91
-1141.75
2487.45
-43.0403
5090.5
6027.01
-2266.45
-7354.09
11142.5
-3774.88
1324.59
-6969.84
476.311
-13476
-10861.3
-18285.9
-7905.62
-9549.03
-3967.48
5296.54
7545.52
-8696.3
8902.19
-6699.43
-1617.27
-10471.1
-2795.89
12164.2
-445.075
-6215.35
-5684.7
-10358.1
-6418.12
4429.1
4159.15
9555.04
-5908.64
3251.41
-5972.33
1665.19
-19159.8
13148
-12834.8
-10297.6
-2154.04
-12585.9
6626.95
-12337.4
-2634.79
-2131.53
7546.62
-921.929
4689.31
16037.5
10895.3
8152.54
-13201.4
-14812.1
2233.69
2106.12
-4532.39
-14125.3
3970.58
-443.025
2697.46
-5.1316
-8825.31
5960.56
-12909.7
10746.8
-1994.25
-1811.5
-739.888
9086.32
1801.3
-272.613
-7845.76
8343.37
-2249.07
-1463.5
-1532.9
-820.427
971.964
-3938.65
6487.44
14689.2
12232.6
-4383.31
9239.2
-10764.1
14653.8
9476.81
55.05
9793.67
-2498.76
-10777.5
5452.7
-643.335
-966.018
5163.12
-3585.64
-844.819
11179.4
-7001.47
-453.737
2127.71
10349.1
3461.31
-7385.54
-8158.76
-11423.3
-1105.7
4520.65
4648.27
-3773.37
-5422.35
-3564.5
2109.45
-3829.76
-3945.6
-204.149
-192.054
5234.87
-4948.96
6771.82
-64.8543
1594.57
-7652.58
168.321
16598.6
-942.052
-5317.92
2934.73
7303.25
7769.11
681.922
4737.5
-10128.2
13254.7
12283.3
4561.28
-2818.95
-3094.63
2682.8
-9091.49
-2373.66
4091.7
-11841
11503.2
-3630.36
-3155.32
2135.54
-3228.43
11139.3
-3673.34
-9077.35
-6477.49
-9361.99
-20123.4
2072.41
-4517.35
5181.03
-11566.9
3915.3
-4099.81
11301
8604.62
4203.53
-10608.6
4886.41
-6900.02
-4590.51
-2647.71
12862.9
-3787.27
974.076
5998.36
-9380.37
-2791.64
2542.94
-2773.29
-2688.55
-7516.45
10350.3
-7645.76
4201.78
-6574.48
6109.28
2209.81
4607.77
5703.2
-6434.2
983.102
379.189
8104.06
-9704.16
-4531.51
-1750.08
-8557.16
-17235.9
366.137
2109.47
11275.8
-2007.62
6218.71
-2919.4
17657.5
10802.4
-4066.16
4853.64
5614.29
-1238.34
6033.54
2290.99
3999.02
-3266.08
10992.6
-3902.89
4771.88
-2796.96
11507.6
-9202.56
-1406.66
-3867.97
5065.33
1910.18
5490.33
-11368.6
7346.02
-3086.55
3584.2
-2317.69
6258.57
14378
-4035.56
7327.19
-6677.72
-7775.1
4382.35
-7535.76
-15595.2
1965.95
1026.04
-6480.69
-1557.16
-14017.3
-2679.96
6853.72
-6684.69
-5291.18
-1383.42
-4714.31
269.863
-8174.67
-2524.14
-8987.52
5078.95
-7387.24
-1167.11
12692.7
3834.41
11943.4
-3554.08
2511.42
9437.16
7291.49
-8307.34
5159.48
-2742.12
4532.44
-3352.45
2597.87
2769.14
9591.31
-5781.76
-311.695
10268.3
1761.98
1107.72
-12863.9
14461.4
-1819.06
4640.77
-5291.95
3817.97
6855.92
10904.1
8199.01
-4838.45
4300.13
222.522
9104.02
3837.83
-2101.94
-2008.52
3989.61
-6056.79
-18018.9
9808.14
-2086.14
-12892.7
-10787.5
6863.13
-3789.24
8946.22
-4199.83
-8639.96
-2733.55
-8388.28
-17508.6
9315.71
-11348.5
-14426.3
2483.31
-1135.73
-1373.6
-2364.64
-255.991
-1612.98
6118.5
4328.15
-18847.7
-7575.29
6483.67
4749.42
10463.5
5805.93
378.938
9538.88
-1996.14
-5875.88
-4.51141
-1116.53
2244.41
-1475.5
-2067.24
-2738.71
-2800.65
12887.8
9347.07
-3397.32
-2077.01
5343
3588.89
6537.43
-2014.01
-6327.8
25665.2
4849.45
-8685.76
-6203.52
-3079.83
-5785.12
-349.009
-6686.63
-8214.74
-10159.5
-4438.98
-5634.48
-8727.76
-3119.19
392.101
5374.6
-10746.2
14169.8
-5063.59
12334
-7341.05
-55.6809
8203.89
2487.62
2306.04
2421.84
6896.54
-6008.24
-1456.76
-1016.51
-10600.2
9403.61
-6772.37
-222.157
558.417
7811.43
-11429
2056.46
7918.56
3880.21
2040.33
8912.89
-2583.23
11144.3
4866.42
496.325
9953.81
-7040.89
8493.6
1103.76
4538.44
2538.94
-8814.62
10552.9
-10935.8
-2165.82
6906.05
12720.6
-2767.44
14687.3
1904.31
113.37
-3318.2
6547.4
7295.07
-1866.73
-7604.42
-2027.43
6007.18
12324.7
-5455.42
1884.64
2089.16
-7964.58
6610.61
-210.276
241.461
-2284.48
10233
1905.81
-873.512
714.203
7618.26
16116.1
4236.49
4458.37
-10749.1
13776.6
7995.79
6570.84
-6773.13
7890.81
-7129.33
3726.48
-2154.54
-9797.56
7728.26
-3464.52
1036.9
-3832.65
5326.69
-6371
-10181.4
-5941.99
-5728.44
-4537.89
8629.68
-9444.36
7680.13
-11825.6
-8590.88
-9828.98
-7336
5231.65
-17914.7
1233.35
348.351
8346.81
-4119.34
-5112.72
-265.566
596.525
-4184.07
-3689.99
-1433.51
-1320.82
-10541.2
11967.5
-1735.49
-3262.59
-8745.13
13874.9
13769.9
-2139.06
8146.97
-1363.97
8937.51
8023.79
-7483.2
-9653.47
10141.7
-1722.43
3558.19
715.417
-5702.14
6840.15
4078.01
-4809.53
-7341.15
-4309.77
17011.1
-4223.02
15955.1
-8227.51
369.874
-2156.96
-11347
-14602.5
-2731.81
-1668.47
11635.1
492.545
16587.6
-2944.39
-1930.27
4219.38
-4115.81
10866
3046.5
-7027.71
-7941.79
1974.45
1872.33
11553.8
4272.55
305.805
6088.94
1241.03
3378.13
-19288.3
10061
-2064.64
13050.3
-8814.31
5435.56
-10435.7
-4352.88
-9703.03
-11022.6
3299.39
9689.83
-8522.76
8708.38
3055.67
3507.91
6610.39
10579.4
668.663
5201.73
-11671.2
535.904
4461.8
-2884.89
2802.04
-251.79
20631.8
-5557.88
2137.01
358.949
8950.68
9008.08
-9254.55
329.148
-6299.07
-2641.48
5701.43
3577.73
-5671.66
2621.21
-4437.8
8933.04
5055.48
-3801.57
5833.98
-5753.13
4458.35
-3937.26
8449.15
-2981.26
2958.03
9334.94
6259.19
-10881.1
-8176.87
-790.242
-3825.3
-4971.58
-14776.4
-2872.76
-4541
-13462.3
-13164.1
1232.53
2444.33
13297.3
7538.23
2667.63
16.7915
3148.6
-10621.9
12531.3
-14078
-3312.27
-6733.37
-5733.51
8918.08
8465.17
-7493.99
-3253.84
-1210.36
9269.06
-1354.85
3082.18
-3987.21
-7570.78
7464.75
804.695
578.557
-11009.8
-1243.03
-18784.9
7441.39
3267.8
-4888.85
-2392.63
-3100.75
1328.09
-852.223
-1595.29
10037.8
-799.446
1634.86
1171.81
-46.6988
659.688
-11863.2
-1075
12380.9
-8829.72
-10590.6
-841.929
12482.2
3964.37
1863
-1362.44
-5757.9
899.941
-5530.4
-6323.87
-1837.61
-11629.8
-8567.52
4714.11
4818.57
1763.06
5967.22
4459.72
12179.6
11696.9
-353.732
-2228.23
-917.793
3835.9
7428.59
-4250.83
-304.656
-1816.52
4380.32
-3788.9
-14712.9
-9761.39
4744.18
7292.4
3693.36
8645.74
12439.7
11618.8
-6048.44
-3153.92
-187.528
4176.87
-11939.1
222.701
-8441.48
8066.06
-6138.94
-238.686
5690.76
6421.81
5740
14.4173
-8007.95
-5965.3
-10539.8
2599.49
-4225.33
4450.98
1652.84
-5199.46
2351.23
766.626
-2740.41
-10149
2562.25
-6024.9
5410.33
9170.06
3068.47
15524
-1276.82
3312.36
1770.06
-7970.74
-8800.16
-6459.95
-12156.6
3417.67
202.817
20152.6
-3727.81
-6169.72
-5748.79
-10425.1
12526.7
4273.16
16838.6
-3777.15
-4183.21
7427.79
17269.2
-2705.52
-8268.13
5510.05
4361.56
4261.18
14817.2
-2207.29
-3809.21
7280.31
14274.9
-13991.7
10609.2
4295.08
10888.1
8553.36
-1553.99
-6602.49
7602.88
-5341.2
-563.037
5712.54
-5238.35
-2714.02
7287.89
3423.3
-4026.53
-790.616
1335.38
-9747.25
-3893.12
-4789.18
8564.87
10893.7
755.385
5586.49
11157.1
2990.75
3049.87
-3246.83
7521.39
14651
-15296.4
-2264.7
-16500.4
-4301.5
-11662.1
4618.49
715.228
8963.61
-779.616
-4726.29
7327.41
-10259.2
-6166.97
-4857.55
16039
15929.8
12711.1
5809.43
-482.853
-3262.77
-3444.61
-3155.45
-1155.76
6527.5
-6886.76
1685.49
-3323.82
1927.77
-1311.01
-3813.66
1566.11
572.475
-9272.64
-147.678
-4093.68
-5384.07
2821.13
-602.457
-3696.96
-1533
-12145.7
3425.69
2923.78
-11936.5
-279.883
8724.68
1321.47
1178.56
-9064.21
5995.48
-3006.68
-1716.64
10800.9
-1281.37
4377.64
-3051.27
-18559.3
-1186.12
-6645.86
8981.12
1942.81
955.523
-14047.2
2013.52
-11653.1
-8778.74
-4700.55
-3733.07
-1935.23
-3873.44
7515.86
-3906.21
-2430.61
5693.37
6110.03
-4006.96
-999.969
-5153.71
846.397
-1610.08
-2783.55
12663.1
-10311.4
-8905.9
10806.9
-891.57
11143.5
-6734.7
-14414.3
8972.52
-9448.48
-1052.79
2354.41
9527.79
-2132.37
3363.24
4173.77
-420.907
9112.86
2732.34
-10089.5
-4013.47
-12244.2
-13120.1
-3111.62
-5418.28
13435.6
-781.12
-3929.26
-6994.31
703.621
2449.7
-989.012
1683.81
-4019.19
9961.39
981.523
6361.89
2384.04
-13484.5
3249.22
-1552.49
-3029.64
1556.96
-11856.7
-1998.79
7276.22
3337.89
-8931.98
-317.341
-12906.2
11342.4
-8894.67
-2655.71
-2421.89
4467.19
1311.44
6474.29
-11461.7
14626.6
2124
-2014.41
14155.2
-546.953
8125.27
-4569.54
-13668.1
-5861.28
5768.6
-2452.4
-2073.7
5406.57
329.259
-994.132
-11360.5
-3699.79
-7716.4
7343.36
-723.917
2926.05
3615.83
3565.21
-11081.2
2880.46
-7714.74
-1259.44
-8528.81
9836.66
-1716.65
12197.5
-3930.47
-3536.94
8698.23
-3291.87
185.753
-1111.85
-2945.97
-4857.46
-2377.67
15614.6
8338.39
-5790.62
-2672.32
-6801.22
3459.94
-12976.9
1637.63
7539.85
4459.02
-11256.4
-15849.4
-112.772
-2108.75
-3371.34
-9043.53
6723.86
-4374.42
-1577.44
-6507.09
939.559
12010.8
-4081.43
-14572.1
816.113
8805.01
1728.55
-12534.7
-7128.01
8244.82
4532.58
-13918.3
-3922.77
9591.64
-1057.84
-4462.87
-4984.08
8394.13
1556.99
-7152.27
-6924.77
15236.3
-5829.96
3261.4
920.124
-1719.22
-2442.21
1092.63
6587.32
-91.4019
-9049
14199.4
-5340.07
5753.3
-16381.3
-835.495
15039.2
8251.9
-8053.62
-3198.97
410.337
4594.12
6257.51
8210.61
-6840.19
-665.925
-9871.54
-4663.24
4367.01
-2969.24
-1958.32
-4290.07
-3133.64
-1311.95
13291.4
-18518.6
-1556.08
-7316.22
-214.577
-6234.78
-16406.1
2854.55
-1625.77
5747.96
-3384.46
6772.49
8410.16
-5941.16
-7209.74
-10775.1
-3791.28
-3826.83
1430.67
1244
-10550.9
2168.42
-5131.8
7564.07
-1503.68
3423.4
3010.04
-13410.5
7603
-5077.66
12210.7
-3234.31
-249.258
13205.6
7103.73
-9899.86
-729.554
8359.93
-1153.14
-11715.4
-7216.63
-6454.94
4463.04
-3842.36
-7862.3
254.705
-1533.56
1666.53
2726.07
1446.06
-1998.34
4215.89
7171.69
-19174.9
-2689.87
8757.12
5149.94
-17912.7
-5094.13
-12100.8
8546.28
-8730.4
-1664.05
-494.816
7156.82
-8154.41
-2479.36
-7885.76
-162.683
2594.13
14846.8
-2257.27
563.06
5228.38
13265.1
-7774.13
9907.84
7219.98
-3710
721.561
-9043.41
3684.81
-8533.99
3406.2
-3503.84
5778.93
423.596
-10924.9
10618.9
1229.45
8447.64
2941.11
1423.55
3503.69
-18547.4
-12823.2
-22615.3
3277.17
3733.27
-6608.64
-5990.14
-6618.11
201.13
11372.5
2067.06
-4036.71
4132.67
-88.3507
-14106.5
-4933.46
-5227.16
-146.752
-6741.06
4769.36
4155.95
1563.53
10063.9
9033.68
692.846
6375.96
-5583.06
-8494.29
9210
-12595.6
10022.5
5622.76
-1507.23
-12523.5
19.0857
2120.15
8404.44
7962.64
-3294.63
-15356.1
-7618.75
6517.33
8554.72
1044.67
-5927.36
-2310.09
8118.83
6091.36
-11296.4
5579.89
3549.92
8330.47
-2685.42
-5525.15
-8228.71
-1147.58
2681.69
3235.25
7133.08
-264.581
3447.42
-5357.94
-9484.65
-4284.95
-90.2221
217.291
10653.4
-8183.07
4879.75
-11118.1
4094.82
-11965
6013.91
-15523.7
-4104.99
3917.81
4927.33
2873.91
-3532.2
2266.82
2174.03
-8862.35
-10427
-3218.95
6015.53
4259.75
-7894.98
-11755.9
8012.25
197.569
-1965.41
-226.88
-1055.3
6459.2
1226.36
-3644.83
-3698.89
16506.6
16204.1
-4543.34
-5367.47
-17168.8
-6022.43
2155.98
5837.75
-8737.73
2831.55
-62.6271
-4174.51
7570.43
-792.018
8567.94
-1991.3
15858.4
-14613
-38.8356
-7254.52
-859.559
-3605.04
-596.103
-25009.5
5956.11
6234.58
-288.313
-11818.6
1380.53
2754.2
10297.5
9479.44
-1258.35
1439.5
2963.02
-4462.57
-7856.96
-10621.5
3068.99
-3320.78
-3866.97
-9490.04
11611
-12679.9
1960.02
-4695.68
-11740.2
6338.6
-5386.95
-3087.28
-11094.7
-7619.79
6159.55
1550.25
-10732.1
-2412.35
3525.42
975.611
339.751
1384.26
3808.62
-6691.87
-15245.7
4612.74
4603.72
8937.29
-2558.2
13808.1
11190.7
9102.2
728.002
9967.54
9873.97
-18072.3
4454.07
-3586.63
9265.13
359.354
-6777.33
4905.06
-21576.6
-12408.2
-10003.5
-6999.03
-10591.1
9379.15
-11653.4
8242.72
-6520.18
-5499.62
8524.82
3467.43
6012.03
-2876.11
-7007.29
8996.5
6537.3
10803
3620.66
-3746.23
5817.3
-8907.54
1534.38
8766.55
-8412.77
-4865.21
-9411.17
7421.57
-16074.2
-837.48
10591.9
3652.96
8379.55
6221.2
-5.73678
288.346
-11276.1
2597.22
-415.447
-5337.94
743.886
1990.8
3650.45
-10316.2
222.233
7552.49
-1510.76
-10378.6
-2528.4
-706.445
4856.82
6502.68
12198.5
289.259
-116.591
3181.75
5939.65
-6077.58
932.845
5264.42
9104.42
-300.107
-4025.14
-256.014
15395.9
-1597.65
-3731.59
2083.87
-3866.87
-10113.6
-6870.06
1250.09
311.784
-4083.42
10697
8613.09
-2759.8
5067.99
3463.58
31677.4
-1322.05
-10204.8
568.385
10661.9
4006.04
2609.93
2231.34
-4795.67
10888.6
1181.47
-3123.03
2114.38
-1950.38
-5393.95
-7389.94
-5289.92
7511.13
6136.3
7015.13
-5103.88
1956.04
1077.08
-2143.88
689.521
-1630.68
5798.35
-3052.72
-594.037
1549.96
-8638.94
6220.33
-9454.2
-154.956
-9819.51
466.956
160.807
4918.98
7183.79
574.672
4695.55
6121.07
8829.01
2382.44
3810.51
-2704.38
-4255.65
1409.21
-15567.7
-1953.27
-8586.86
6058.07
10639.8
952.674
1858.26
5675.26
6464.34
-5161.17
-1180.82
-2767.84
12627.6
6444.14
-6613.75
2165.98
3358.67
-6021.59
3925.84
833.618
-1020.46
-4632.78
-7242.98
-8540.34
-3382.36
3535.56
-7157.5
-2048.77
-3572.06
-1370.09
5016.07
-4297.46
-7669.33
876.127
-1709.47
6.73943
-17758.6
2216.03
-9801.89
-10071.6
-5237.1
-6430.38
7764.87
2924.5
-5426.12
-10578.9
-2980.04
-6325.9
-1977.3
-2566.6
4146.13
844.907
1881.5
4702.14
6728.21
-3003.59
2317.17
-209.861
5150.41
11698.1
-4392.34
-2102.15
-3498.92
-268.07
2859.52
5885.91
862.551
-1087.95
8155.83
-13.6032
-2075.75
21.2403
11620.6
-10780.5
-575.953
3657.72
-5132.1
-5131.28
344.018
265.827
-13819.6
1887.59
-20338.2
-218.556
-13206.5
-2236.69
-3852.43
-11203
-2681.94
-14439.5
5705.85
5039.74
1348.59
-3292.19
17867.9
-829.679
-10473.4
-7316.21
-3100.43
-12660.7
4964.54
3497.44
101.333
-23428.9
-16868.4
2658.97
2198.22
-5071.35
-11238.2
-885.416
22288.1
-15619.5
13166.8
2437.24
1132.96
-570.954
3252.9
15359.3
-3946.34
3383.69
17115.6
20539.9
-16415.3
-5897.76
3988.53
-504.377
-13286.8
5126.2
4165.93
5527.81
-9154.94
-17314
-16519
1216.11
14752.7
-1161.07
-832.616
-17829.8
-6259.31
-2068.26
-5612
2938.44
10455.8
834.47
14739.7
-5002.88
19614.8
9112.13
-5437.38
-4241.53
7835.77
-6022.33
3561.24
2935.56
-7782.74
1319.45
3161.42
-3150.56
15656.8
14398.4
-7303.47
-6529.59
244.982
8082.06
-6395.83
1589.92
-14254.9
15009
-7124.97
4471.7
-3002.16
-2364.99
-10096.3
-8217.51
-1565.68
-779.181
-6133.21
-2161.09
-14478
15791.9
-8307.77
888.967
-1759.06
-10105.4
5502.97
5420.37
-6838.51
-4808.5
-682.775
6883.91
-4419.12
1659.02
-3400.24
4275.42
1111.17
-14641.7
6359.8
-9977.92
7402.23
-2048.98
-9083.18
-2726.2
-8618.25
8051.38
7783.23
-13312.1
12151.4
-1476.76
4871.83
-5954.89
-3966.99
-10869.6
-2184.34
-18205.3
-7126.56
-78.094
6747.65
7341.57
-2068.12
-201.479
-10520.3
9408.09
-2332.12
7951.45
-11220.1
-5169.15
627.053
4525.42
-14475.9
14720.5
5857.36
-676.15
1219.56
5260.7
9561.46
-4084.51
-11881.7
-4076.79
11803.1
996.508
-3719.57
7060.35
380.742
-3973.71
-2588.87
404.448
-14567.5
175.288
3356.57
2130.2
-786.703
-3825.07
-1034.21
4495.65
2535.87
8622.31
10577.2
569.76
-5473.01
-6049.29
-1393.92
-9139.34
-2734.66
9479.15
-7169.5
3435.87
-2306.3
5465.79
2685.07
1842.01
-6582.7
-11177.2
-4884.35
-6350.02
10414.9
4099.92
13690.4
11577.7
-2575.94
761.284
1578.43
8489.12
8708.11
-2599.73
16097
8991.54
-373.851
-2566.01
1823.26
2969.48
1438.29
-5655.17
-438.851
-3619.07
-11119.5
-17594.3
-4864.71
-6377.31
7767.64
640.849
15544.6
8426.82
863.678
-4835.71
-8499.66
-11815.8
-10982.2
-9312.91
5403.05
-3509.47
-18563.5
-6690.72
6000.97
-2619.09
147.255
-11235.5
11193.5
148.89
-12869.1
-5537.98
7488.03
-2261.12
-8193.99
-4969.29
5002.44
3790.51
-3806.05
-3391.26
2624.26
11738.1
5763.25
14417.8
-72.7644
5109.68
-2450.06
13807.5
-10989.2
11900.9
11222.7
10494.3
-11233.6
942.45
11936.7
12745.7
-5047.74
-19487.2
7387.64
5134.67
10740.9
2627.56
13088.6
3610.88
9433.72
11105.7
16614.4
14917.2
1188.94
-14300.8
11826.6
3043.45
4986.25
-21896.3
3388.04
-10113.4
-2952.01
3274.89
4619.67
5745.55
-10294.1
6397.37
-26618.7
4663.27
-2285.51
-1062.41
-5109.58
1814.85
798.651
-3180.89
-1301.94
120.92
4300.41
4037.07
8702.02
4170.69
6252.05
-7278.48
3338.46
-7620.23
3745.12
-6758.38
4325.68
-8832.8
6272.03
5084.3
-10409.7
66.8241
-2588.29
-11011.7
-12517.3
928.542
-7813.5
-3279.18
-3731.83
1841.73
6182.16
-13712.1
694.367
-922.925
-2459.65
4706.86
6227.62
22492.8
-7778.79
16272.8
-9663.69
-10018.9
-1859.59
-7897.55
3780.5
-4000.49
24040.2
6884.2
8273.87
9073.62
-1398.32
-6480.99
-7997.96
-9828.15
4767.19
13317.4
6938.63
-8367.61
3291.79
-4384.33
4402.42
4792.02
8054.5
13857.8
1855.02
2055.04
3589.16
-10098.7
-8380.95
-3058.89
4976.08
-3886.79
-2455.76
-7690.79
12908.9
-19489.4
-14097.8
803.182
6934.91
7399
-951.621
-11548.3
12398
3545.55
-7700.94
2414.97
-2441.09
-8382.87
-6619
10377.3
-6503.81
-6713.41
10604.4
-5447.65
-4891.43
-1010.33
6584.56
7480.38
3268.05
-4029.2
19.0474
5291.8
-963.015
5801.87
6266.97
-6384.7
5330.21
12233
6748.72
12319.7
-5516.48
10463.3
-4928.77
-4170.36
5104.29
4684.71
7667.95
-13954.1
-2212.72
-958.282
5202.19
2853.37
3796.35
6319.26
6314.63
-9009.67
-763.565
-3977.51
12678.1
8547.59
-11914.6
3008.08
-3469.61
6268.75
9928.41
529.744
2387.5
754.377
-9331.72
-1448.7
-7970.11
-10948.1
-8960.82
-5196.48
3331.43
-931.154
13150.6
2454.57
-5632.31
-5616.73
-10439.9
-9671.91
-10364.2
5323.72
-4457.57
1094.46
-12961.4
-18187.8
1484.36
3141.61
-6906.65
4938.44
-3114.04
5674.42
3937.65
-143.31
-18825.9
482.087
1478.02
-1764.84
3218.99
404.534
-6393.97
-1135.63
-4708.94
-5194.85
6287.17
8869.37
-3267.76
-450.907
-3289.79
-439.461
3121.95
-6481.92
-1715.2
-5733.91
12918.4