# vtk DataFile Version 3.0
PFC simulation results
ASCII
DATASET STRUCTURED_POINTS
DIMENSIONS 128 128 1
ORIGIN 0 0 0
SPACING 1 1 1
POINT_DATA 16384
SCALARS psi double
LOOKUP_TABLE default
0.521899
0.394897
0.0721989
-0.289036
-0.508734
-0.481718
-0.221758
0.142023
0.42225
0.476419
0.274195
-0.0901237
-0.433675
-0.584549
-0.470899
-0.146211
0.228114
0.461453
0.438295
0.166634
-0.223432
-0.536643
-0.621541
-0.439818
-0.076136
0.290551
0.478712
0.399425
0.0881663
-0.306196
-0.590432
-0.633054
-0.416733
-0.0403614
0.314655
0.47839
0.377467
0.0574609
-0.33165
-0.605115
-0.642352
-0.430382
-0.0629909
0.289422
0.465629
0.392471
0.103808
-0.271646
-0.564988
-0.655021
-0.512207
-0.197025
0.156726
0.400227
0.443578
0.280425
-0.0214826
-0.341715
-0.5591
-0.604468
-0.471138
-0.206458
0.0961252
0.328677
0.414659
0.328677
0.0961252
-0.206458
-0.471138
-0.604468
-0.5591
-0.341715
-0.0214826
0.280425
0.443578
0.400227
0.156726
-0.197025
-0.512207
-0.655021
-0.564988
-0.271646
0.103808
0.392471
0.465629
0.289422
-0.0629909
-0.430382
-0.642352
-0.605115
-0.33165
0.0574609
0.377467
0.47839
0.314655
-0.0403614
-0.416733
-0.633054
-0.590432
-0.306196
0.0881663
0.399425
0.478712
0.290551
-0.076136
-0.439818
-0.621541
-0.536643
-0.223432
0.166634
0.438295
0.461453
0.228114
-0.146211
-0.470899
-0.584549
-0.433675
-0.0901237
0.274195
0.476419
0.42225
0.142023
-0.221758
-0.481718
-0.508734
-0.289036
0.0721989
0.394897
0.484414
0.342964
-0.0149314
-0.412127
-0.650532
-0.618248
-0.330332
0.0747368
0.391881
0.463788
0.256774
-0.127925
-0.494676
-0.660302
-0.547127
-0.207348
0.192363
0.450608
0.443452
0.176007
-0.22065
-0.546772
-0.644414
-0.46932
-0.102336
0.277069
0.482955
0.421594
0.123567
-0.267423
-0.559295
-0.615829
-0.412708
-0.0426105
0.316772
0.49562
0.417326
0.119902
-0.257221
-0.534664
-0.587796
-0.395404
-0.043018
0.306271
0.495372
0.450043
0.195777
-0.153484
-0.439895
-0.541249
-0.420204
-0.129221
0.206939
0.449195
0.513802
0.392926
0.142439
-0.135275
-0.330517
-0.373879
-0.255189
-0.019915
0.244869
0.445217
0.518609
0.445217
0.244869
-0.019915
-0.255189
-0.373879
-0.330517
-0.135275
0.142439
0.392926
0.513802
0.449195
0.206939
-0.129221
-0.420204
-0.541249
-0.439895
-0.153484
0.195777
0.450043
0.495372
0.306271
-0.043018
-0.395404
-0.587796
-0.534664
-0.257221
0.119902
0.417326
0.49562
0.316772
-0.0426105
-0.412708
-0.615829
-0.559295
-0.267423
0.123567
0.421594
0.482955
0.277069
-0.102336
-0.46932
-0.644414
-0.546772
-0.22065
0.176007
0.443452
0.450608
0.192363
-0.207348
-0.547127
-0.660302
-0.494676
-0.127925
0.256774
0.463788
0.391881
0.0747368
-0.330332
-0.618248
-0.650532
-0.412127
-0.0149314
0.342964
0.52488
0.394579
0.0638564
-0.305083
-0.52692
-0.494335
-0.222333
0.156922
0.454376
0.529281
0.351901
0.00980569
-0.323932
-0.480104
-0.382563
-0.0784417
0.280785
0.517639
0.525005
0.304989
-0.0351716
-0.324746
-0.419586
-0.274315
0.0404604
0.368852
0.554036
0.517411
0.280173
-0.0451328
-0.298926
-0.358123
-0.1953
0.111169
0.412628
0.571022
0.523723
0.296099
-0.00741693
-0.242664
-0.299086
-0.151845
0.129312
0.412252
0.573875
0.556431
0.375629
0.111762
-0.116155
-0.206251
-0.121722
0.0965155
0.350098
0.53569
0.595549
0.52644
0.365727
0.180253
0.0458512
0.0153711
0.0975184
0.256259
0.428514
0.554487
0.599693
0.554487
0.428514
0.256259
0.0975184
0.0153711
0.0458512
0.180253
0.365727
0.52644
0.595549
0.53569
0.350098
0.0965155
-0.121722
-0.206251
-0.116155
0.111762
0.375629
0.556431
0.573875
0.412252
0.129312
-0.151845
-0.299086
-0.242664
-0.00741693
0.296099
0.523723
0.571022
0.412628
0.111169
-0.1953
-0.358123
-0.298926
-0.0451328
0.280173
0.517411
0.554036
0.368852
0.0404604
-0.274315
-0.419586
-0.324746
-0.0351716
0.304989
0.525005
0.517639
0.280785
-0.0784417
-0.382563
-0.480104
-0.323932
0.00980569
0.351901
0.529281
0.454376
0.156922
-0.222333
-0.494335
-0.52692
-0.305083
0.0638564
0.394579
0.60475
0.507602
0.25908
-0.0220813
-0.19309
-0.166345
0.0449607
0.333844
0.558018
0.617919
0.493934
0.246836
-0.000391475
-0.120043
-0.0507364
0.170586
0.429639
0.601152
0.61351
0.468261
0.235252
0.0303471
-0.0413088
0.0562545
0.271179
0.493977
0.62148
0.604642
0.456361
0.245421
0.0746675
0.0301836
0.133514
0.330402
0.522869
0.626038
0.603841
0.470854
0.286493
0.137732
0.0974703
0.184219
0.35221
0.519214
0.615166
0.611234
0.517628
0.375994
0.249774
0.197624
0.241683
0.355211
0.48012
0.564644
0.589408
0.5626
0.503783
0.437661
0.391523
0.385234
0.419157
0.47302
0.520497
0.54755
0.555448
0.54755
0.520497
0.47302
0.419157
0.385234
0.391523
0.437661
0.503783
0.5626
0.589408
0.564644
0.48012
0.355211
0.241683
0.197624
0.249774
0.375994
0.517628
0.611234
0.615166
0.519214
0.35221
0.184219
0.0974703
0.137732
0.286493
0.470854
0.603841
0.626038
0.522869
0.330402
0.133514
0.0301836
0.0746675
0.245421
0.456361
0.604642
0.62148
0.493977
0.271179
0.0562545
-0.0413088
0.0303471
0.235252
0.468261
0.61351
0.601152
0.429639
0.170586
-0.0507364
-0.120043
-0.000391475
0.246836
0.493934
0.617919
0.558018
0.333844
0.0449607
-0.166345
-0.19309
-0.0220813
0.25908
0.507602
0.626792
0.576226
0.445293
0.294315
0.201365
0.217329
0.332984
0.485501
0.599743
0.629468
0.568694
0.44711
0.323852
0.263757
0.298695
0.406338
0.526461
0.601661
0.605626
0.543326
0.444435
0.357334
0.328302
0.372088
0.460954
0.545248
0.587427
0.577063
0.523788
0.451237
0.394052
0.382975
0.423355
0.489308
0.543538
0.564182
0.551065
0.514398
0.46905
0.435483
0.432197
0.460559
0.500068
0.524917
0.526158
0.513608
0.499943
0.491144
0.489986
0.498715
0.512929
0.516951
0.49522
0.452505
0.416396
0.415034
0.454273
0.515533
0.571294
0.599897
0.588085
0.53129
0.443215
0.360961
0.327252
0.360961
0.443215
0.53129
0.588085
0.599897
0.571294
0.515533
0.454273
0.415034
0.416396
0.452505
0.49522
0.516951
0.512929
0.498715
0.489986
0.491144
0.499943
0.513608
0.526158
0.524917
0.500068
0.460559
0.432197
0.435483
0.46905
0.514398
0.551065
0.564182
0.543538
0.489308
0.423355
0.382975
0.394052
0.451237
0.523788
0.577063
0.587427
0.545248
0.460954
0.372088
0.328302
0.357334
0.444435
0.543326
0.605626
0.601661
0.526461
0.406338
0.298695
0.263757
0.323852
0.44711
0.568694
0.629468
0.599743
0.485501
0.332984
0.217329
0.201365
0.294315
0.445293
0.576226
0.494306
0.495986
0.497316
0.494483
0.492094
0.496182
0.50213
0.498999
0.485972
0.475622
0.478725
0.493071
0.509627
0.52228
0.525975
0.512289
0.478531
0.440037
0.4225
0.439465
0.481551
0.526575
0.554617
0.552196
0.512778
0.446445
0.385288
0.365502
0.400116
0.470283
0.540427
0.579269
0.568694
0.505931
0.411772
0.330968
0.308005
0.35661
0.451402
0.545774
0.598063
0.584844
0.503589
0.380006
0.268472
0.22584
0.275802
0.394722
0.526563
0.613605
0.618397
0.528887
0.365513
0.188708
0.0780005
0.0873653
0.214345
0.400994
0.564552
0.638297
0.591592
0.432509
0.21405
0.0258025
-0.0481265
0.0258025
0.21405
0.432509
0.591592
0.638297
0.564552
0.400994
0.214345
0.0873653
0.0780005
0.188708
0.365513
0.528887
0.618397
0.613605
0.526563
0.394722
0.275802
0.22584
0.268472
0.380006
0.503589
0.584844
0.598063
0.545774
0.451402
0.35661
0.308005
0.330968
0.411772
0.505931
0.568694
0.579269
0.540427
0.470283
0.400116
0.365502
0.385288
0.446445
0.512778
0.552196
0.554617
0.526575
0.481551
0.439465
0.4225
0.440037
0.478531
0.512289
0.525975
0.52228
0.509627
0.493071
0.478725
0.475622
0.485972
0.498999
0.50213
0.496182
0.492094
0.494483
0.497316
0.495986
0.178781
0.233153
0.367506
0.5133
0.602473
0.597219
0.496537
0.338754
0.1963
0.142047
0.205499
0.354114
0.512001
0.603042
0.584574
0.458047
0.273234
0.116945
0.0692653
0.156047
0.333456
0.512251
0.606962
0.573024
0.41829
0.206003
0.0365576
-0.00481005
0.103285
0.30694
0.505772
0.606836
0.564107
0.389427
0.154187
-0.0322353
-0.0791295
0.0361446
0.257746
0.479569
0.600567
0.567699
0.387539
0.128996
-0.0938814
-0.178055
-0.0853119
0.141932
0.39977
0.573755
0.590324
0.434598
0.155728
-0.135775
-0.314159
-0.303732
-0.109827
0.18335
0.446816
0.570056
0.503138
0.264276
-0.0575638
-0.327507
-0.43149
-0.327507
-0.0575638
0.264276
0.503138
0.570056
0.446816
0.18335
-0.109827
-0.303732
-0.314159
-0.135775
0.155728
0.434598
0.590324
0.573755
0.39977
0.141932
-0.0853119
-0.178055
-0.0938814
0.128996
0.387539
0.567699
0.600567
0.479569
0.257746
0.0361446
-0.0791295
-0.0322353
0.154187
0.389427
0.564107
0.606836
0.505772
0.30694
0.103285
-0.00481005
0.0365576
0.206003
0.41829
0.573024
0.606962
0.512251
0.333456
0.156047
0.0692653
0.116945
0.273234
0.458047
0.584574
0.603042
0.512001
0.354114
0.205499
0.142047
0.1963
0.338754
0.496537
0.597219
0.602473
0.5133
0.367506
0.233153
-0.231981
-0.132317
0.118172
0.396178
0.568731
0.558507
0.366964
0.0757018
-0.178009
-0.270649
-0.157609
0.106312
0.390489
0.556708
0.52717
0.309572
-0.00175109
-0.258338
-0.33573
-0.197162
0.0910943
0.38756
0.549016
0.50018
0.257416
-0.0724948
-0.332358
-0.398568
-0.241075
0.0662606
0.375375
0.539774
0.484881
0.230123
-0.11349
-0.385106
-0.459508
-0.304878
0.00875844
0.33515
0.52368
0.491838
0.248758
-0.104965
-0.410367
-0.532171
-0.420911
-0.124175
0.227463
0.477125
0.519223
0.33315
-0.0125014
-0.372719
-0.592987
-0.586315
-0.35714
0.000734434
0.331739
0.494466
0.423886
0.144625
-0.230978
-0.541742
-0.660098
-0.541742
-0.230978
0.144625
0.423886
0.494466
0.331739
0.000734434
-0.35714
-0.586315
-0.592987
-0.372719
-0.0125014
0.33315
0.519223
0.477125
0.227463
-0.124175
-0.420911
-0.532171
-0.410367
-0.104965
0.248758
0.491838
0.52368
0.33515
0.00875844
-0.304878
-0.459508
-0.385106
-0.11349
0.230123
0.484881
0.539774
0.375375
0.0662606
-0.241075
-0.398568
-0.332358
-0.0724948
0.257416
0.50018
0.549016
0.38756
0.0910943
-0.197162
-0.33573
-0.258338
-0.00175109
0.309572
0.52717
0.556708
0.390489
0.106312
-0.157609
-0.270649
-0.178009
0.0757018
0.366964
0.558507
0.568731
0.396178
0.118172
-0.132317
-0.565464
-0.437179
-0.11048
0.258453
0.491132
0.480624
0.229878
-0.148109
-0.471819
-0.588182
-0.445212
-0.107721
0.262217
0.484193
0.454458
0.183839
-0.203809
-0.521067
-0.618901
-0.45426
-0.101322
0.270912
0.481958
0.434138
0.14699
-0.247271
-0.559004
-0.644512
-0.46749
-0.106394
0.268492
0.478648
0.42951
0.141826
-0.253785
-0.570519
-0.666148
-0.501832
-0.148016
0.233893
0.467217
0.451019
0.192485
-0.195834
-0.536726
-0.681162
-0.572655
-0.255467
0.134222
0.423122
0.490807
0.312695
-0.0381989
-0.409208
-0.639192
-0.637428
-0.406056
-0.0382401
0.307157
0.483592
0.423642
0.152424
-0.217209
-0.524366
-0.641564
-0.524366
-0.217209
0.152424
0.423642
0.483592
0.307157
-0.0382401
-0.406056
-0.637428
-0.639192
-0.409208
-0.0381989
0.312695
0.490807
0.423122
0.134222
-0.255467
-0.572655
-0.681162
-0.536726
-0.195834
0.192485
0.451019
0.467217
0.233893
-0.148016
-0.501832
-0.666148
-0.570519
-0.253785
0.141826
0.42951
0.478648
0.268492
-0.106394
-0.46749
-0.644512
-0.559004
-0.247271
0.14699
0.434138
0.481958
0.270912
-0.101322
-0.45426
-0.618901
-0.521067
-0.203809
0.183839
0.454458
0.484193
0.262217
-0.107721
-0.445212
-0.588182
-0.471819
-0.148109
0.229878
0.480624
0.491132
0.258453
-0.11048
-0.437179
-0.673886
-0.537088
-0.186991
0.211135
0.464683
0.457334
0.192443
-0.207851
-0.549679
-0.672331
-0.521923
-0.164866
0.229736
0.471085
0.44904
0.17437
-0.224588
-0.553786
-0.658859
-0.493819
-0.131989
0.254939
0.481357
0.445937
0.166269
-0.227071
-0.544185
-0.63823
-0.468744
-0.110605
0.268077
0.489158
0.457008
0.188512
-0.193301
-0.507762
-0.612016
-0.462385
-0.123625
0.249616
0.487019
0.490488
0.263531
-0.0933959
-0.41697
-0.563084
-0.471984
-0.182213
0.179881
0.454994
0.533771
0.393614
0.0962371
-0.22753
-0.433724
-0.435846
-0.234148
0.0860224
0.385637
0.541916
0.500387
0.281498
-0.0242146
-0.283376
-0.383618
-0.283376
-0.0242146
0.281498
0.500387
0.541916
0.385637
0.0860224
-0.234148
-0.435846
-0.433724
-0.22753
0.0962371
0.393614
0.533771
0.454994
0.179881
-0.182213
-0.471984
-0.563084
-0.41697
-0.0933959
0.263531
0.490488
0.487019
0.249616
-0.123625
-0.462385
-0.612016
-0.507762
-0.193301
0.188512
0.457008
0.489158
0.268077
-0.110605
-0.468744
-0.63823
-0.544185
-0.227071
0.166269
0.445937
0.481357
0.254939
-0.131989
-0.493819
-0.658859
-0.553786
-0.224588
0.17437
0.44904
0.471085
0.229736
-0.164866
-0.521923
-0.672331
-0.549679
-0.207851
0.192443
0.457334
0.464683
0.211135
-0.186991
-0.537088
-0.511674
-0.386406
-0.0680803
0.29091
0.519255
0.516061
0.2843
-0.0706593
-0.377668
-0.489125
-0.353538
-0.033352
0.318028
0.534424
0.522606
0.291203
-0.0530697
-0.343501
-0.44014
-0.298235
0.0158355
0.351046
0.550672
0.531226
0.305527
-0.0227046
-0.295762
-0.383002
-0.244381
0.0549755
0.37216
0.561951
0.548124
0.341858
0.0360459
-0.225567
-0.319883
-0.204472
0.0666225
0.366311
0.561209
0.577006
0.415112
0.146926
-0.105918
-0.22714
-0.163339
0.0548474
0.327024
0.534743
0.601664
0.513669
0.312358
0.0860152
-0.0623566
-0.0657714
0.0756289
0.296238
0.498566
0.604186
0.5816
0.444335
0.247433
0.0761459
0.00868687
0.0761459
0.247433
0.444335
0.5816
0.604186
0.498566
0.296238
0.0756289
-0.0657714
-0.0623566
0.0860152
0.312358
0.513669
0.601664
0.534743
0.327024
0.0548474
-0.163339
-0.22714
-0.105918
0.146926
0.415112
0.577006
0.561209
0.366311
0.0666225
-0.204472
-0.319883
-0.225567
0.0360459
0.341858
0.548124
0.561951
0.37216
0.0549755
-0.244381
-0.383002
-0.295762
-0.0227046
0.305527
0.531226
0.550672
0.351046
0.0158355
-0.298235
-0.44014
-0.343501
-0.0530697
0.291203
0.522606
0.534424
0.318028
-0.033352
-0.353538
-0.489125
-0.377668
-0.0706593
0.2843
0.516061
0.519255
0.29091
-0.0680803
-0.386406
-0.149573
-0.0561643
0.177793
0.436838
0.599992
0.599578
0.438007
0.186141
-0.0360981
-0.118122
-0.0192233
0.211111
0.459301
0.611305
0.606932
0.452457
0.217068
0.0134677
-0.0567473
0.0410159
0.256714
0.483497
0.618658
0.610958
0.468829
0.255841
0.073234
0.0115889
0.10081
0.294523
0.496955
0.618367
0.615237
0.494784
0.309949
0.146497
0.0840623
0.152197
0.314484
0.490643
0.604291
0.617756
0.534021
0.39005
0.250075
0.180383
0.213221
0.328441
0.466905
0.568033
0.600593
0.563996
0.47793
0.379345
0.314024
0.313554
0.375235
0.464308
0.538643
0.573912
0.566566
0.522968
0.45764
0.397509
0.372932
0.397509
0.45764
0.522968
0.566566
0.573912
0.538643
0.464308
0.375235
0.313554
0.314024
0.379345
0.47793
0.563996
0.600593
0.568033
0.466905
0.328441
0.213221
0.180383
0.250075
0.39005
0.534021
0.617756
0.604291
0.490643
0.314484
0.152197
0.0840623
0.146497
0.309949
0.494784
0.615237
0.618367
0.496955
0.294523
0.10081
0.0115889
0.073234
0.255841
0.468829
0.610958
0.618658
0.483497
0.256714
0.0410159
-0.0567473
0.0134677
0.217068
0.452457
0.606932
0.611305
0.459301
0.211111
-0.0192233
-0.118122
-0.0360981
0.186141
0.438007
0.599578
0.599992
0.436838
0.177793
-0.0561643
0.250297
0.296226
0.408563
0.528552
0.601656
0.601469
0.530117
0.416569
0.313893
0.275972
0.323168
0.428144
0.535372
0.597385
0.594634
0.532236
0.436361
0.351955
0.323467
0.365691
0.452657
0.537066
0.582542
0.577676
0.529117
0.45697
0.39456
0.375026
0.408272
0.472154
0.530078
0.558109
0.553257
0.522855
0.478732
0.440078
0.427788
0.448051
0.484423
0.511978
0.519697
0.514468
0.506047
0.497569
0.490845
0.490807
0.498161
0.502087
0.489553
0.463652
0.445144
0.452345
0.483937
0.522886
0.55192
0.560291
0.540098
0.489429
0.424747
0.380195
0.384349
0.436856
0.508971
0.565913
0.586769
0.565913
0.508971
0.436856
0.384349
0.380195
0.424747
0.489429
0.540098
0.560291
0.55192
0.522886
0.483937
0.452345
0.445144
0.463652
0.489553
0.502087
0.498161
0.490807
0.490845
0.497569
0.506047
0.514468
0.519697
0.511978
0.484423
0.448051
0.427788
0.440078
0.478732
0.522855
0.553257
0.558109
0.530078
0.472154
0.408272
0.375026
0.39456
0.45697
0.529117
0.577676
0.582542
0.537066
0.452657
0.365691
0.323467
0.351955
0.436361
0.532236
0.594634
0.597385
0.535372
0.428144
0.323168
0.275972
0.313893
0.416569
0.530117
0.601469
0.601656
0.528552
0.408563
0.296226
0.5266
0.519279
0.496335
0.462322
0.434625
0.432292
0.457767
0.49495
0.524968
0.538274
0.530785
0.499552
0.451813
0.411412
0.404292
0.436404
0.489294
0.536285
0.558685
0.546999
0.499213
0.429552
0.371878
0.360352
0.403421
0.477877
0.54666
0.580401
0.564124
0.497391
0.402106
0.323108
0.304202
0.357716
0.456145
0.551157
0.601131
0.584081
0.499233
0.374047
0.264338
0.227244
0.28461
0.408692
0.539524
0.618903
0.612676
0.515025
0.354769
0.197984
0.120611
0.163508
0.307196
0.48234
0.608824
0.633025
0.539892
0.357021
0.157584
0.0341717
0.047621
0.192027
0.397199
0.567661
0.632464
0.567661
0.397199
0.192027
0.047621
0.0341717
0.157584
0.357021
0.539892
0.633025
0.608824
0.48234
0.307196
0.163508
0.120611
0.197984
0.354769
0.515025
0.612676
0.618903
0.539524
0.408692
0.28461
0.227244
0.264338
0.374047
0.499233
0.584081
0.601131
0.551157
0.456145
0.357716
0.304202
0.323108
0.402106
0.497391
0.564124
0.580401
0.54666
0.477877
0.403421
0.360352
0.371878
0.429552
0.499213
0.546999
0.558685
0.536285
0.489294
0.436404
0.404292
0.411412
0.451813
0.499552
0.530785
0.538274
0.524968
0.49495
0.457767
0.432292
0.434625
0.462322
0.496335
0.519279
0.619667
0.560937
0.406592
0.221722
0.0942808
0.0885186
0.207744
0.392127
0.552679
0.618667
0.562162
0.40168
0.203398
0.0608617
0.0455439
0.165846
0.361959
0.53866
0.616152
0.560174
0.38821
0.170921
0.0102003
-0.0143718
0.110045
0.322489
0.520244
0.613398
0.560692
0.377786
0.138931
-0.0454297
-0.0858332
0.0377966
0.266242
0.490423
0.608656
0.569306
0.381638
0.118777
-0.10129
-0.174682
-0.0665164
0.173158
0.431954
0.592595
0.58588
0.407246
0.121563
-0.148163
-0.278224
-0.209241
0.0277483
0.322873
0.540356
0.585832
0.436215
0.145147
-0.16358
-0.349331
-0.328539
-0.1105
0.205181
0.472532
0.575271
0.472532
0.205181
-0.1105
-0.328539
-0.349331
-0.16358
0.145147
0.436215
0.585832
0.540356
0.322873
0.0277483
-0.209241
-0.278224
-0.148163
0.121563
0.407246
0.58588
0.592595
0.431954
0.173158
-0.0665164
-0.174682
-0.10129
0.118777
0.381638
0.569306
0.608656
0.490423
0.266242
0.0377966
-0.0858332
-0.0454297
0.138931
0.377786
0.560692
0.613398
0.520244
0.322489
0.110045
-0.0143718
0.0102003
0.170921
0.38821
0.560174
0.616152
0.53866
0.361959
0.165846
0.0455439
0.0608617
0.203398
0.40168
0.562162
0.618667
0.552679
0.392127
0.207744
0.0885186
0.0942808
0.221722
0.406592
0.560937
0.581634
0.47942
0.214367
-0.0957882
-0.304397
-0.313367
-0.118565
0.18831
0.460781
0.5747
0.480701
0.214954
-0.105911
-0.33087
-0.354636
-0.166343
0.146099
0.43331
0.562561
0.476601
0.207791
-0.126222
-0.3687
-0.407128
-0.224361
0.0955829
0.400847
0.549982
0.476958
0.208482
-0.139135
-0.404228
-0.465463
-0.29625
0.0276236
0.355085
0.535216
0.489133
0.231751
-0.128604
-0.427404
-0.530003
-0.392947
-0.0754012
0.278381
0.506311
0.509287
0.281999
-0.0838307
-0.424723
-0.587953
-0.505132
-0.211012
0.163936
0.447015
0.513204
0.332796
-0.0218131
-0.392729
-0.611908
-0.586482
-0.326979
0.0541194
0.381368
0.508064
0.381368
0.0541194
-0.326979
-0.586482
-0.611908
-0.392729
-0.0218131
0.332796
0.513204
0.447015
0.163936
-0.211012
-0.505132
-0.587953
-0.424723
-0.0838307
0.281999
0.509287
0.506311
0.278381
-0.0754012
-0.392947
-0.530003
-0.427404
-0.128604
0.231751
0.489133
0.535216
0.355085
0.0276236
-0.29625
-0.465463
-0.404228
-0.139135
0.208482
0.476958
0.549982
0.400847
0.0955829
-0.224361
-0.407128
-0.3687
-0.126222
0.207791
0.476601
0.562561
0.43331
0.146099
-0.166343
-0.354636
-0.33087
-0.105911
0.214954
0.480701
0.5747
0.460781
0.18831
-0.118565
-0.313367
-0.304397
-0.0957882
0.214367
0.47942
0.516904
0.387577
0.0546076
-0.329703
-0.584261
-0.595113
-0.35771
0.021933
0.364427
0.510914
0.397335
0.0711421
-0.319172
-0.589645
-0.619143
-0.395275
-0.0171024
0.337103
0.501795
0.404279
0.085216
-0.310391
-0.596177
-0.644487
-0.4353
-0.0598389
0.306548
0.492741
0.416872
0.110467
-0.28847
-0.593093
-0.668102
-0.482873
-0.116246
0.263854
0.481395
0.441865
0.161454
-0.236295
-0.567339
-0.685141
-0.542096
-0.19722
0.19593
0.457081
0.473518
0.238784
-0.146321
-0.505673
-0.678435
-0.593782
-0.286007
0.110915
0.415029
0.492936
0.313321
-0.0472141
-0.424609
-0.646768
-0.619913
-0.354829
0.0346486
0.369552
0.499317
0.369552
0.0346486
-0.354829
-0.619913
-0.646768
-0.424609
-0.0472141
0.313321
0.492936
0.415029
0.110915
-0.286007
-0.593782
-0.678435
-0.505673
-0.146321
0.238784
0.473518
0.457081
0.19593
-0.19722
-0.542096
-0.685141
-0.567339
-0.236295
0.161454
0.441865
0.481395
0.263854
-0.116246
-0.482873
-0.668102
-0.593093
-0.28847
0.110467
0.416872
0.492741
0.306548
-0.0598389
-0.4353
-0.644487
-0.596177
-0.310391
0.085216
0.404279
0.501795
0.337103
-0.0171024
-0.395275
-0.619143
-0.589645
-0.319172
0.0711421
0.397335
0.510914
0.364427
0.021933
-0.35771
-0.595113
-0.584261
-0.329703
0.0546076
0.387577
0.509931
0.377117
0.0354013
-0.358436
-0.618878
-0.630035
-0.387207
0.00214558
0.354884
0.508278
0.396804
0.0686321
-0.325762
-0.600036
-0.631358
-0.406477
-0.0243732
0.335779
0.507398
0.417344
0.105215
-0.286278
-0.572189
-0.624017
-0.419943
-0.0491556
0.315769
0.506592
0.442729
0.153129
-0.231164
-0.529716
-0.608282
-0.43396
-0.081959
0.286324
0.502698
0.477131
0.223256
-0.146219
-0.459883
-0.576361
-0.446801
-0.126384
0.240751
0.488402
0.514183
0.311922
-0.0299305
-0.354481
-0.513226
-0.437684
-0.160098
0.195698
0.468165
0.542566
0.392876
0.0838075
-0.244696
-0.440281
-0.415775
-0.181663
0.157227
0.444992
0.555761
0.444992
0.157227
-0.181663
-0.415775
-0.440281
-0.244696
0.0838075
0.392876
0.542566
0.468165
0.195698
-0.160098
-0.437684
-0.513226
-0.354481
-0.0299305
0.311922
0.514183
0.488402
0.240751
-0.126384
-0.446801
-0.576361
-0.459883
-0.146219
0.223256
0.477131
0.502698
0.286324
-0.081959
-0.43396
-0.608282
-0.529716
-0.231164
0.153129
0.442729
0.506592
0.315769
-0.0491556
-0.419943
-0.624017
-0.572189
-0.286278
0.105215
0.417344
0.507398
0.335779
-0.0243732
-0.406477
-0.631358
-0.600036
-0.325762
0.0686321
0.396804
0.508278
0.354884
0.00214558
-0.387207
-0.630035
-0.618878
-0.358436
0.0354013
0.377117
0.570906
0.459148
0.169808
-0.167632
-0.39373
-0.403572
-0.192706
0.141428
0.441195
0.572458
0.482593
0.210106
-0.122807
-0.358488
-0.386835
-0.195042
0.128143
0.430271
0.57609
0.507846
0.256099
-0.0667088
-0.308123
-0.354965
-0.186124
0.120064
0.419442
0.578367
0.534722
0.309795
0.00293822
-0.242319
-0.311101
-0.172477
0.109123
0.401844
0.575809
0.564121
0.376373
0.0942889
-0.152243
-0.2479
-0.149456
0.0969235
0.37627
0.564752
0.590112
0.448748
0.202058
-0.0379246
-0.157998
-0.102296
0.10245
0.359886
0.554367
0.609326
0.508995
0.296304
0.0654946
-0.0743684
-0.0563321
0.110816
0.347227
0.543867
0.618715
0.543867
0.347227
0.110816
-0.0563321
-0.0743684
0.0654946
0.296304
0.508995
0.609326
0.554367
0.359886
0.10245
-0.102296
-0.157998
-0.0379246
0.202058
0.448748
0.590112
0.564752
0.37627
0.0969235
-0.149456
-0.2479
-0.152243
0.0942889
0.376373
0.564121
0.575809
0.401844
0.109123
-0.172477
-0.311101
-0.242319
0.00293822
0.309795
0.534722
0.578367
0.419442
0.120064
-0.186124
-0.354965
-0.308123
-0.0667088
0.256099
0.507846
0.57609
0.430271
0.128143
-0.195042
-0.386835
-0.358488
-0.122807
0.210106
0.482593
0.572458
0.441195
0.141428
-0.192706
-0.403572
-0.39373
-0.167632
0.169808
0.459148
0.62878
0.556554
0.367563
0.142859
-0.0107993
-0.017555
0.125839
0.348445
0.544289
0.629727
0.573808
0.399825
0.182761
0.0255663
0.00589691
0.133105
0.343576
0.53649
0.629414
0.589563
0.435071
0.232235
0.0765445
0.0447852
0.152041
0.343844
0.52763
0.624874
0.602077
0.471678
0.289017
0.138808
0.0946755
0.177563
0.344356
0.513716
0.613255
0.609683
0.509359
0.354451
0.215253
0.159526
0.213971
0.348851
0.496847
0.593851
0.607918
0.540078
0.419118
0.298678
0.237537
0.266157
0.367638
0.489352
0.576865
0.600702
0.557789
0.465607
0.362812
0.299214
0.30809
0.383833
0.486086
0.567131
0.597019
0.567131
0.486086
0.383833
0.30809
0.299214
0.362812
0.465607
0.557789
0.600702
0.576865
0.489352
0.367638
0.266157
0.237537
0.298678
0.419118
0.540078
0.607918
0.593851
0.496847
0.348851
0.213971
0.159526
0.215253
0.354451
0.509359
0.609683
0.613255
0.513716
0.344356
0.177563
0.0946755
0.138808
0.289017
0.471678
0.602077
0.624874
0.52763
0.343844
0.152041
0.0447852
0.0765445
0.232235
0.435071
0.589563
0.629414
0.53649
0.343576
0.133105
0.00589691
0.0255663
0.182761
0.399825
0.573808
0.629727
0.544289
0.348445
0.125839
-0.017555
-0.0107993
0.142859
0.367563
0.556554
0.576318
0.553378
0.490802
0.411899
0.355381
0.353262
0.406549
0.484342
0.547678
0.573259
0.555946
0.501943
0.431246
0.377945
0.372017
0.416236
0.483541
0.538881
0.562272
0.550831
0.509897
0.45384
0.409018
0.40092
0.433511
0.484947
0.526514
0.543825
0.537602
0.512492
0.476016
0.444422
0.436403
0.456183
0.487723
0.510193
0.516729
0.513583
0.505962
0.494146
0.48198
0.478502
0.486472
0.495487
0.493454
0.48259
0.476823
0.48422
0.49912
0.512055
0.519751
0.520973
0.509678
0.48239
0.45085
0.437195
0.453248
0.489174
0.524244
0.544104
0.543794
0.521117
0.479391
0.43631
0.417739
0.43631
0.479391
0.521117
0.543794
0.544104
0.524244
0.489174
0.453248
0.437195
0.45085
0.48239
0.509678
0.520973
0.519751
0.512055
0.49912
0.48422
0.476823
0.48259
0.493454
0.495487
0.486472
0.478502
0.48198
0.494146
0.505962
0.513583
0.516729
0.510193
0.487723
0.456183
0.436403
0.444422
0.476016
0.512492
0.537602
0.543825
0.526514
0.484947
0.433511
0.40092
0.409018
0.45384
0.509897
0.550831
0.562272
0.538881
0.483541
0.416236
0.372017
0.377945
0.431246
0.501943
0.555946
0.573259
0.547678
0.484342
0.406549
0.353262
0.355381
0.411899
0.490802
0.553378
0.340848
0.370486
0.442292
0.518245
0.565536
0.569115
0.527283
0.451659
0.373363
0.33319
0.354646
0.426114
0.50979
0.567765
0.579021
0.538338
0.456215
0.365322
0.311626
0.325736
0.400793
0.497546
0.570863
0.591961
0.551534
0.459675
0.351994
0.281154
0.286147
0.365602
0.478703
0.571829
0.606537
0.567969
0.465125
0.336623
0.243038
0.234008
0.315964
0.447659
0.565994
0.620321
0.587875
0.475133
0.323065
0.200787
0.170774
0.250128
0.399368
0.545996
0.625048
0.60364
0.484843
0.311801
0.161814
0.10963
0.182845
0.344801
0.515727
0.61823
0.6106
0.493471
0.311554
0.146726
0.0805223
0.146726
0.311554
0.493471
0.6106
0.61823
0.515727
0.344801
0.182845
0.10963
0.161814
0.311801
0.484843
0.60364
0.625048
0.545996
0.399368
0.250128
0.170774
0.200787
0.323065
0.475133
0.587875
0.620321
0.565994
0.447659
0.315964
0.234008
0.243038
0.336623
0.465125
0.567969
0.606537
0.571829
0.478703
0.365602
0.286147
0.281154
0.351994
0.459675
0.551534
0.591961
0.570863
0.497546
0.400793
0.325736
0.311626
0.365322
0.456215
0.538338
0.579021
0.567765
0.50979
0.426114
0.354646
0.33319
0.373363
0.451659
0.527283
0.569115
0.565536
0.518245
0.442292
0.370486
-0.0473677
0.031495
0.22963
0.451513
0.596731
0.606627
0.476766
0.257527
0.0459882
-0.0566332
-0.000257611
0.187921
0.416911
0.580961
0.611254
0.494402
0.274316
0.0467663
-0.0803206
-0.0453093
0.135271
0.374457
0.560488
0.613365
0.510216
0.288638
0.043366
-0.110509
-0.0990761
0.0726645
0.322814
0.533892
0.613519
0.52768
0.306191
0.0415921
-0.143625
-0.161426
-0.00291811
0.257267
0.49661
0.608621
0.545715
0.328092
0.0445637
-0.175284
-0.227781
-0.0880059
0.178804
0.446289
0.592854
0.555822
0.345707
0.047831
-0.202017
-0.286122
-0.165166
0.104594
0.394844
0.57161
0.559393
0.361178
0.0593072
-0.207401
-0.312603
-0.207401
0.0593072
0.361178
0.559393
0.57161
0.394844
0.104594
-0.165166
-0.286122
-0.202017
0.047831
0.345707
0.555822
0.592854
0.446289
0.178804
-0.0880059
-0.227781
-0.175284
0.0445637
0.328092
0.545715
0.608621
0.49661
0.257267
-0.00291811
-0.161426
-0.143625
0.0415921
0.306191
0.52768
0.613519
0.533892
0.322814
0.0726645
-0.0990761
-0.110509
0.043366
0.288638
0.510216
0.613365
0.560488
0.374457
0.135271
-0.0453093
-0.0803206
0.0467663
0.274316
0.494402
0.611254
0.580961
0.416911
0.187921
-0.000257611
-0.0566332
0.0459882
0.257527
0.476766
0.606627
0.596731
0.451513
0.22963
0.031495
-0.441137
-0.326156
-0.0326139
0.303225
0.526686
0.542557
0.343931
0.0133947
-0.29867
-0.44733
-0.366079
-0.0910485
0.250673
0.500002
0.548028
0.373958
0.0489378
-0.280534
-0.461463
-0.412999
-0.156499
0.190795
0.466561
0.548201
0.400603
0.0831341
-0.262555
-0.476186
-0.462482
-0.227464
0.123193
0.425949
0.544507
0.427975
0.122113
-0.238458
-0.486995
-0.512616
-0.304382
0.0458196
0.375495
0.534449
0.454167
0.165128
-0.207077
-0.490433
-0.557684
-0.380067
-0.0348246
0.318298
0.515928
0.471699
0.201673
-0.176997
-0.488416
-0.591092
-0.440912
-0.10267
0.267397
0.496024
0.482301
0.230966
-0.147795
-0.476686
-0.604674
-0.476686
-0.147795
0.230966
0.482301
0.496024
0.267397
-0.10267
-0.440912
-0.591092
-0.488416
-0.176997
0.201673
0.471699
0.515928
0.318298
-0.0348246
-0.380067
-0.557684
-0.490433
-0.207077
0.165128
0.454167
0.534449
0.375495
0.0458196
-0.304382
-0.512616
-0.486995
-0.238458
0.122113
0.427975
0.544507
0.425949
0.123193
-0.227464
-0.462482
-0.476186
-0.262555
0.0831341
0.400603
0.548201
0.466561
0.190795
-0.156499
-0.412999
-0.461463
-0.280534
0.0489378
0.373958
0.548028
0.500002
0.250673
-0.0910485
-0.366079
-0.44733
-0.29867
0.0133947
0.343931
0.542557
0.526686
0.303225
-0.0326139
-0.326156
-0.663426
-0.531783
-0.19239
0.200913
0.465293
0.485077
0.251891
-0.133787
-0.493759
-0.663643
-0.571398
-0.255684
0.141928
0.435778
0.49505
0.29462
-0.0799151
-0.456368
-0.661753
-0.608511
-0.318809
0.0793954
0.400329
0.499228
0.334098
-0.0250561
-0.414219
-0.65376
-0.640939
-0.381164
0.0129851
0.358774
0.498787
0.37337
0.0352558
-0.362594
-0.635844
-0.666078
-0.441062
-0.0564744
0.310914
0.492402
0.410009
0.0982278
-0.303078
-0.606941
-0.679321
-0.490407
-0.119574
0.263653
0.48134
0.438483
0.153151
-0.24696
-0.574045
-0.680913
-0.522817
-0.166044
0.226486
0.470611
0.458109
0.194338
-0.202754
-0.546029
-0.679118
-0.546029
-0.202754
0.194338
0.458109
0.470611
0.226486
-0.166044
-0.522817
-0.680913
-0.574045
-0.24696
0.153151
0.438483
0.48134
0.263653
-0.119574
-0.490407
-0.679321
-0.606941
-0.303078
0.0982278
0.410009
0.492402
0.310914
-0.0564744
-0.441062
-0.666078
-0.635844
-0.362594
0.0352558
0.37337
0.498787
0.358774
0.0129851
-0.381164
-0.640939
-0.65376
-0.414219
-0.0250561
0.334098
0.499228
0.400329
0.0793954
-0.318809
-0.608511
-0.661753
-0.456368
-0.0799151
0.29462
0.49505
0.435778
0.141928
-0.255684
-0.571398
-0.663643
-0.493759
-0.133787
0.251891
0.485077
0.465293
0.200913
-0.19239
-0.531783
-0.616153
-0.487642
-0.157045
0.225058