# vtk DataFile Version 3.0
PFC simulation results
ASCII
DATASET STRUCTURED_POINTS
DIMENSIONS 128 128 1
ORIGIN 0 0 0
SPACING 1 1 1
POINT_DATA 16384
SCALARS psi double
LOOKUP_TABLE default
0.524595
0.402754
0.0937525
-0.25053
-0.456348
-0.42295
-0.16689
0.18313
0.446185
0.488453
0.284556
-0.071594
-0.40193
-0.540655
-0.420965
-0.100545
0.258459
0.470695
0.428385
0.146688
-0.239133
-0.53493
-0.596707
-0.396166
-0.0285883
0.322066
0.480233
0.369413
0.0395017
-0.349518
-0.606028
-0.61143
-0.36475
0.0191321
0.35281
0.476421
0.33457
-0.00805138
-0.388692
-0.626959
-0.619308
-0.371849
0.00457615
0.334335
0.468411
0.352924
0.0399329
-0.330227
-0.592668
-0.642269
-0.466165
-0.1385
0.201339
0.412893
0.42176
0.234908
-0.0713853
-0.376865
-0.570605
-0.596
-0.454277
-0.194833
0.0933242
0.311592
0.391793
0.311592
0.0933242
-0.194833
-0.454277
-0.596
-0.570605
-0.376865
-0.0713853
0.234908
0.42176
0.412893
0.201339
-0.1385
-0.466165
-0.642269
-0.592668
-0.330227
0.0399329
0.352924
0.468411
0.334335
0.00457615
-0.371849
-0.619308
-0.626959
-0.388692
-0.00805138
0.33457
0.476421
0.35281
0.0191321
-0.36475
-0.61143
-0.606028
-0.349518
0.0395017
0.369413
0.480233
0.322066
-0.0285883
-0.396166
-0.596707
-0.53493
-0.239133
0.146688
0.428385
0.470695
0.258459
-0.100545
-0.420965
-0.540655
-0.40193
-0.071594
0.284556
0.488453
0.446185
0.18313
-0.16689
-0.42295
-0.456348
-0.25053
0.0937525
0.402754
0.478519
0.337842
-0.0173188
-0.40952
-0.641451
-0.60289
-0.311812
0.0902031
0.39815
0.458229
0.241248
-0.147162
-0.509298
-0.664199
-0.539077
-0.192294
0.204235
0.448939
0.42299
0.140123
-0.259066
-0.571599
-0.645365
-0.446563
-0.0682097
0.302385
0.482689
0.390681
0.0720683
-0.316607
-0.582906
-0.602554
-0.367553
0.0130772
0.354778
0.49684
0.379783
0.0596982
-0.311367
-0.556943
-0.567939
-0.341385
0.0208789
0.350623
0.501963
0.418133
0.140472
-0.206632
-0.467709
-0.534036
-0.383206
-0.0799275
0.246004
0.462315
0.497767
0.354646
0.0953561
-0.176537
-0.35741
-0.386737
-0.260409
-0.0256083
0.233079
0.426833
0.497515
0.426833
0.233079
-0.0256083
-0.260409
-0.386737
-0.35741
-0.176537
0.0953561
0.354646
0.497767
0.462315
0.246004
-0.0799275
-0.383206
-0.534036
-0.467709
-0.206632
0.140472
0.418133
0.501963
0.350623
0.0208789
-0.341385
-0.567939
-0.556943
-0.311367
0.0596982
0.379783
0.49684
0.354778
0.0130772
-0.367553
-0.602554
-0.582906
-0.316607
0.0720683
0.390681
0.482689
0.302385
-0.0682097
-0.446563
-0.645365
-0.571599
-0.259066
0.140123
0.42299
0.448939
0.204235
-0.192294
-0.539077
-0.664199
-0.509298
-0.147162
0.241248
0.458229
0.39815
0.0902031
-0.311812
-0.60289
-0.641451
-0.40952
-0.0173188
0.337842
0.511749
0.377876
0.0389793
-0.336967
-0.560098
-0.522348
-0.241315
0.145579
0.443762
0.5103
0.318203
-0.0373991
-0.375354
-0.524195
-0.411568
-0.091613
0.276079
0.509166
0.502092
0.264795
-0.0840183
-0.366372
-0.440737
-0.271325
0.0591523
0.386248
0.554129
0.492977
0.236691
-0.0899416
-0.324401
-0.352538
-0.161721
0.155311
0.444454
0.574969
0.497407
0.250844
-0.0498386
-0.260989
-0.283872
-0.1094
0.179533
0.447882
0.581729
0.536052
0.337279
0.0730733
-0.138032
-0.203135
-0.0969764
0.130337
0.377642
0.546846
0.588167
0.503782
0.334247
0.147755
0.01831
-0.00518856
0.0826864
0.244572
0.417801
0.543789
0.588922
0.543789
0.417801
0.244572
0.0826864
-0.00518856
0.01831
0.147755
0.334247
0.503782
0.588167
0.546846
0.377642
0.130337
-0.0969764
-0.203135
-0.138032
0.0730733
0.337279
0.536052
0.581729
0.447882
0.179533
-0.1094
-0.283872
-0.260989
-0.0498386
0.250844
0.497407
0.574969
0.444454
0.155311
-0.161721
-0.352538
-0.324401
-0.0899416
0.236691
0.492977
0.554129
0.386248
0.0591523
-0.271325
-0.440737
-0.366372
-0.0840183
0.264795
0.502092
0.509166
0.276079
-0.091613
-0.411568
-0.524195
-0.375354
-0.0373991
0.318203
0.5103
0.443762
0.145579
-0.241315
-0.522348
-0.560098
-0.336967
0.0389793
0.377876
0.595021
0.491324
0.22674
-0.0709908
-0.250166
-0.219427
0.0058236
0.311203
0.544957
0.601526
0.462145
0.19565
-0.0636828
-0.181321
-0.0969935
0.145158
0.420778
0.596866
0.600598
0.439304
0.19349
-0.0117215
-0.0699921
0.0476691
0.278823
0.50599
0.625093
0.59227
0.429171
0.214136
0.0542334
0.0305493
0.153602
0.358672
0.54444
0.630903
0.59008
0.444746
0.261019
0.126573
0.107141
0.210403
0.3824
0.540422
0.620763
0.60174
0.498588
0.356258
0.238235
0.198811
0.253742
0.371584
0.493898
0.572398
0.591033
0.558706
0.494687
0.424285
0.375915
0.370076
0.40707
0.466004
0.519321
0.551148
0.560906
0.551148
0.519321
0.466004
0.40707
0.370076
0.375915
0.424285
0.494687
0.558706
0.591033
0.572398
0.493898
0.371584
0.253742
0.198811
0.238235
0.356258
0.498588
0.60174
0.620763
0.540422
0.3824
0.210403
0.107141
0.126573
0.261019
0.444746
0.59008
0.630903
0.54444
0.358672
0.153602
0.0305493
0.0542334
0.214136
0.429171
0.59227
0.625093
0.50599
0.278823
0.0476691
-0.0699921
-0.0117215
0.19349
0.439304
0.600598
0.596866
0.420778
0.145158
-0.0969935
-0.181321
-0.0636828
0.19565
0.462145
0.601526
0.544957
0.311203
0.0058236
-0.219427
-0.250166
-0.0709908
0.22674
0.491324
0.632955
0.5747
0.424431
0.252269
0.147215
0.166164
0.298198
0.471967
0.601294
0.632295
0.558342
0.416074
0.27616
0.212734
0.259363
0.387656
0.527226
0.61194
0.61234
0.536798
0.423464
0.329703
0.305486
0.362061
0.464154
0.555611
0.59659
0.578447
0.515551
0.437633
0.383143
0.381177
0.431138
0.501488
0.553484
0.567739
0.547487
0.505982
0.460654
0.432415
0.436749
0.470198
0.509382
0.529907
0.526603
0.51159
0.497458
0.489462
0.489871
0.500136
0.514795
0.518068
0.496178
0.456059
0.424929
0.427576
0.466446
0.522594
0.571497
0.595546
0.584144
0.53301
0.453677
0.379288
0.348725
0.379288
0.453677
0.53301
0.584144
0.595546
0.571497
0.522594
0.466446
0.427576
0.424929
0.456059
0.496178
0.518068
0.514795
0.500136
0.489871
0.489462
0.497458
0.51159
0.526603
0.529907
0.509382
0.470198
0.436749
0.432415
0.460654
0.505982
0.547487
0.567739
0.553484
0.501488
0.431138
0.381177
0.383143
0.437633
0.515551
0.578447
0.59659
0.555611
0.464154
0.362061
0.305486
0.329703
0.423464
0.536798
0.61234
0.61194
0.527226
0.387656
0.259363
0.212734
0.27616
0.416074
0.558342
0.632295
0.601294
0.471967
0.298198
0.166164
0.147215
0.252269
0.424431
0.5747
0.522748
0.516861
0.499139
0.475183
0.460178
0.466408
0.488231
0.506987
0.511209
0.505265
0.498124
0.493165
0.49174
0.497146
0.507578
0.510684
0.495319
0.468244
0.450554
0.457048
0.48458
0.518691
0.544061
0.54658
0.515626
0.456802
0.399218
0.378174
0.407988
0.472697
0.53944
0.577509
0.567262
0.504577
0.410665
0.331307
0.31078
0.361491
0.456925
0.550133
0.599456
0.581624
0.495579
0.370245
0.262375
0.227508
0.285045
0.407199
0.536518
0.616906
0.613899
0.518835
0.355787
0.186908
0.0889058
0.10948
0.240442
0.422382
0.576441
0.642205
0.593594
0.439681
0.230831
0.0515269
-0.0188212
0.0515269
0.230831
0.439681
0.593594
0.642205
0.576441
0.422382
0.240442
0.10948
0.0889058
0.186908
0.355787
0.518835
0.613899
0.616906
0.536518
0.407199
0.285045
0.227508
0.262375
0.370245
0.495579
0.581624
0.599456
0.550133
0.456925
0.361491
0.31078
0.331307
0.410665
0.504577
0.567262
0.577509
0.53944
0.472697
0.407988
0.378174
0.399218
0.456802
0.515626
0.54658
0.544061
0.518691
0.48458
0.457048
0.450554
0.468244
0.495319
0.510684
0.507578
0.497146
0.49174
0.493165
0.498124
0.505265
0.511209
0.506987
0.488231
0.466408
0.460178
0.475183
0.499139
0.516861
0.22408
0.271849
0.389551
0.516835
0.594784
0.591021
0.504069
0.366064
0.240104
0.191441
0.247358
0.379307
0.519909
0.601526
0.585331
0.470752
0.30114
0.155688
0.109658
0.188762
0.353074
0.519259
0.606477
0.571365
0.420382
0.214339
0.0508686
0.0128734
0.120511
0.319946
0.512114
0.605859
0.556607
0.378014
0.143791
-0.0361468
-0.073725
0.0492978
0.273106
0.490182
0.601274
0.556821
0.367921
0.108439
-0.105811
-0.175565
-0.0695003
0.163598
0.417233
0.579678
0.582871
0.417541
0.137851
-0.144024
-0.306544
-0.281484
-0.0806651
0.209199
0.462589
0.576065
0.5052
0.269679
-0.0440688
-0.306236
-0.407118
-0.306236
-0.0440688
0.269679
0.5052
0.576065
0.462589
0.209199
-0.0806651
-0.281484
-0.306544
-0.144024
0.137851
0.417541
0.582871
0.579678
0.417233
0.163598
-0.0695003
-0.175565
-0.105811
0.108439
0.367921
0.556821
0.601274
0.490182
0.273106
0.0492978
-0.073725
-0.0361468
0.143791
0.378014
0.556607
0.605859
0.512114
0.319946
0.120511
0.0128734
0.0508686
0.214339
0.420382
0.571365
0.606477
0.519259
0.353074
0.188762
0.109658
0.155688
0.30114
0.470752
0.585331
0.601526
0.519909
0.379307
0.247358
0.191441
0.240104
0.366064
0.504069
0.591021
0.594784
0.516835
0.389551
0.271849
-0.186807
-0.0917726
0.146703
0.410879
0.574772
0.56544
0.38415
0.10774
-0.13361
-0.221616
-0.1132
0.138747
0.409018
0.56605
0.535793
0.325169
0.0240684
-0.224603
-0.299803
-0.165366
0.113807
0.399481
0.55217
0.498671
0.255821
-0.0700867
-0.323617
-0.383705
-0.222831
0.0829893
0.38525
0.539444
0.474152
0.212713
-0.130023
-0.392783
-0.454246
-0.288274
0.0295511
0.350271
0.52562
0.478445
0.224225
-0.130451
-0.425359
-0.530313
-0.4033
-0.0988198
0.248822
0.485248
0.511387
0.313248
-0.0350113
-0.386792
-0.592223
-0.571432
-0.334581
0.0216845
0.343975
0.497019
0.421003
0.142318
-0.228337
-0.533735
-0.64988
-0.533735
-0.228337
0.142318
0.421003
0.497019
0.343975
0.0216845
-0.334581
-0.571432
-0.592223
-0.386792
-0.0350113
0.313248
0.511387
0.485248
0.248822
-0.0988198
-0.4033
-0.530313
-0.425359
-0.130451
0.224225
0.478445
0.52562
0.350271
0.0295511
-0.288274
-0.454246
-0.392783
-0.130023
0.212713
0.474152
0.539444
0.38525
0.0829893
-0.222831
-0.383705
-0.323617
-0.0700867
0.255821
0.498671
0.55217
0.399481
0.113807
-0.165366
-0.299803
-0.224603
0.0240684
0.325169
0.535793
0.56605
0.409018
0.138747
-0.1132
-0.221616
-0.13361
0.10774
0.38415
0.56544
0.574772
0.410879
0.146703
-0.0917726
-0.538259
-0.412111
-0.0913171
0.270286
0.498048
0.487761
0.242302
-0.128142
-0.445807
-0.559752
-0.418508
-0.086713
0.275503
0.491302
0.459471
0.190907
-0.192467
-0.505762
-0.601479
-0.437234
-0.087692
0.278645
0.483063
0.429737
0.139886
-0.252884
-0.559239
-0.637584
-0.454486
-0.091723
0.278425
0.478778
0.418444
0.123019
-0.27228
-0.580099
-0.662254
-0.48549
-0.126098
0.250972
0.471148
0.439335
0.169408
-0.220183
-0.551312
-0.680025
-0.556526
-0.231318
0.155374
0.43205
0.484405
0.294064
-0.0609212
-0.426373
-0.645099
-0.632258
-0.394386
-0.0269804
0.312195
0.48073
0.414963
0.1417
-0.226531
-0.531047
-0.646997
-0.531047
-0.226531
0.1417
0.414963
0.48073
0.312195
-0.0269804
-0.394386
-0.632258
-0.645099
-0.426373
-0.0609212
0.294064
0.484405
0.43205
0.155374
-0.231318
-0.556526
-0.680025
-0.551312
-0.220183
0.169408
0.439335
0.471148
0.250972
-0.126098
-0.48549
-0.662254
-0.580099
-0.27228
0.123019
0.418444
0.478778
0.278425
-0.091723
-0.454486
-0.637584
-0.559239
-0.252884
0.139886
0.429737
0.483063
0.278645
-0.087692
-0.437234
-0.601479
-0.505762
-0.192467
0.190907
0.459471
0.491302
0.275503
-0.086713
-0.418508
-0.559752
-0.445807
-0.128142
0.242302
0.487761
0.498048
0.270286
-0.0913171
-0.412111
-0.671856
-0.535084
-0.185254
0.212227
0.465061
0.457294
0.192284
-0.208059
-0.549924
-0.672359
-0.521441
-0.164116
0.229894
0.469723
0.445568
0.168779
-0.231434
-0.560347
-0.663634
-0.496019
-0.132145
0.254822
0.478681
0.438857
0.155115
-0.239089
-0.552576
-0.639801
-0.463075
-0.10085
0.276035
0.489887
0.448228
0.172489
-0.209814
-0.517
-0.609472
-0.448493
-0.104119
0.265687
0.492356
0.48287
0.246279
-0.112222
-0.428413
-0.562102
-0.458964
-0.162626
0.197337
0.463024
0.529796
0.379584
0.0776359
-0.243878
-0.443375
-0.438373
-0.232146
0.0884344
0.38476
0.53604
0.489642
0.267142
-0.0402888
-0.299628
-0.399705
-0.299628
-0.0402888
0.267142
0.489642
0.53604
0.38476
0.0884344
-0.232146
-0.438373
-0.443375
-0.243878
0.0776359
0.379584
0.529796
0.463024
0.197337
-0.162626
-0.458964
-0.562102
-0.428413
-0.112222
0.246279
0.48287
0.492356
0.265687
-0.104119
-0.448493
-0.609472
-0.517
-0.209814
0.172489
0.448228
0.489887
0.276035
-0.10085
-0.463075
-0.639801
-0.552576
-0.239089
0.155115
0.438857
0.478681
0.254822
-0.132145
-0.496019
-0.663634
-0.560347
-0.231434
0.168779
0.445568
0.469723
0.229894
-0.164116
-0.521441
-0.672359
-0.549924
-0.208059
0.192284
0.457294
0.465061
0.212227
-0.185254
-0.535084
-0.530291
-0.403439
-0.080967
0.282802
0.513986
0.509997
0.273815
-0.087291
-0.399225
-0.512274
-0.374431
-0.0490688
0.307896
0.527225
0.514042
0.2777
-0.0722151
-0.365727
-0.461388
-0.31493
0.0053975
0.345665
0.546705
0.524684
0.294488
-0.0366393
-0.30842
-0.390375
-0.2448
0.0597906
0.377721
0.563548
0.54318
0.331214
0.0241971
-0.232691
-0.31836
-0.194328
0.0811475
0.378705
0.566421
0.573557
0.405112
0.135496
-0.112838
-0.225957
-0.154284
0.0679994
0.338697
0.540606
0.600286
0.50597
0.300931
0.0743371
-0.0715795
-0.0716521
0.0724513
0.294297
0.496248
0.600114
0.574567
0.433494
0.232911
0.0591343
-0.00916784
0.0591343
0.232911
0.433494
0.574567
0.600114
0.496248
0.294297
0.0724513
-0.0716521
-0.0715795
0.0743371
0.300931
0.50597
0.600286
0.540606
0.338697
0.0679994
-0.154284
-0.225957
-0.112838
0.135496
0.405112
0.573557
0.566421
0.378705
0.0811475
-0.194328
-0.31836
-0.232691
0.0241971
0.331214
0.54318
0.563548
0.377721
0.0597906
-0.2448
-0.390375
-0.30842
-0.0366393
0.294488
0.524684
0.546705
0.345665
0.0053975
-0.31493
-0.461388
-0.365727
-0.0722151
0.2777
0.514042
0.527225
0.307896
-0.0490688
-0.374431
-0.512274
-0.399225
-0.087291
0.273815
0.509997
0.513986
0.282802
-0.080967
-0.403439
-0.176827
-0.0806933
0.160296
0.427372
0.595468
0.594272
0.426143
0.164713
-0.065572
-0.150438
-0.0479737
0.190827
0.448395
0.606083
0.601153
0.440521
0.196893
-0.0124357
-0.0829291
0.0200962
0.244227
0.47876
0.61769
0.608853
0.462349
0.245087
0.0613875
0.00269291
0.0973384
0.29609
0.500732
0.620899
0.614174
0.489911
0.303544
0.142224
0.0846878
0.157903
0.322744
0.497807
0.607782
0.616967
0.530046
0.38531
0.247418
0.18157
0.218002
0.334841
0.472497
0.571364
0.601425
0.562528
0.474454
0.374471
0.30867
0.308706
0.37181
0.462975
0.539455
0.575911
0.567741
0.52101
0.451279
0.387392
0.361357
0.387392
0.451279
0.52101
0.567741
0.575911
0.539455
0.462975
0.37181
0.308706
0.30867
0.374471
0.474454
0.562528
0.601425
0.571364
0.472497
0.334841
0.218002
0.18157
0.247418
0.38531
0.530046
0.616967
0.607782
0.497807
0.322744
0.157903
0.0846878
0.142224
0.303544
0.489911
0.614174
0.620899
0.500732
0.29609
0.0973384
0.00269291
0.0613875
0.245087
0.462349
0.608853
0.61769
0.47876
0.244227
0.0200962
-0.0829291
-0.0124357
0.196893
0.440521
0.601153
0.606083
0.448395
0.190827
-0.0479737
-0.150438
-0.065572
0.164713
0.426143
0.594272
0.595468
0.427372
0.160296
-0.0806933
0.227731
0.276723
0.396828
0.525578
0.604197
0.603561
0.525678
0.402232
0.290933
0.249872
0.301013
0.415264
0.532711
0.601122
0.598269
0.529736
0.425036
0.333771
0.30384
0.350583
0.445684
0.537947
0.587649
0.582199
0.529469
0.452404
0.387211
0.368309
0.404793
0.472488
0.532908
0.561292
0.554946
0.522299
0.476648
0.438176
0.427532
0.449637
0.48682
0.513911
0.520583
0.514461
0.505591
0.497172
0.490973
0.491605
0.499281
0.50302
0.490281
0.464864
0.447537
0.455677
0.486963
0.524288
0.551316
0.558594
0.539194
0.491394
0.430761
0.389619
0.394672
0.444808
0.512353
0.564969
0.584076
0.564969
0.512353
0.444808
0.394672
0.389619
0.430761
0.491394
0.539194
0.558594
0.551316
0.524288
0.486963
0.455677
0.447537
0.464864
0.490281
0.50302
0.499281
0.491605
0.490973
0.497172
0.505591
0.514461
0.520583
0.513911
0.48682
0.449637
0.427532
0.438176
0.476648
0.522299
0.554946
0.561292
0.532908
0.472488
0.404793
0.368309
0.387211
0.452404
0.529469
0.582199
0.587649
0.537947
0.445684
0.350583
0.30384
0.333771
0.425036
0.529736
0.598269
0.601122
0.532711
0.415264
0.301013
0.249872
0.290933
0.402232
0.525678
0.603561
0.604197
0.525578
0.396828
0.276723
0.515689
0.511049
0.494935
0.468749
0.446209
0.443899
0.464072
0.492935
0.515596
0.526198
0.522163
0.499108
0.460485
0.425892
0.418743
0.445284
0.489965
0.530201
0.550409
0.541745
0.50034
0.437126
0.382933
0.370659
0.409656
0.479067
0.544256
0.577036
0.562053
0.497619
0.40435
0.326263
0.30698
0.359247
0.456326
0.550486
0.600106
0.582764
0.497461
0.372005
0.26273
0.226784
0.285422
0.41021
0.540835
0.619165
0.611438
0.512583
0.352447
0.197703
0.123641
0.169421
0.313955
0.487593
0.611483
0.633916
0.541314
0.361666
0.167107
0.0481216
0.0634526
0.206186
0.407
0.573017
0.635976
0.573017
0.407
0.206186
0.0634526
0.0481216
0.167107
0.361666
0.541314
0.633916
0.611483
0.487593
0.313955
0.169421
0.123641
0.197703
0.352447
0.512583
0.611438
0.619165
0.540835
0.41021
0.285422
0.226784
0.26273
0.372005
0.497461
0.582764
0.600106
0.550486
0.456326
0.359247
0.30698
0.326263
0.40435
0.497619
0.562053
0.577036
0.544256
0.479067
0.409656
0.370659
0.382933
0.437126
0.50034
0.541745
0.550409
0.530201
0.489965
0.445284
0.418743
0.425892
0.460485
0.499108
0.522163
0.526198
0.515596
0.492935
0.464072
0.443899
0.446209
0.468749
0.494935
0.511049
0.618845
0.562162
0.41308
0.234333
0.111102
0.10579
0.22144
0.399758
0.554733
0.61857
0.564643
0.41047
0.219256
0.0811573
0.0657011
0.181478
0.370788
0.541589
0.61664
0.562308
0.39472
0.181928
0.0233712
-0.00232692
0.118401
0.326357
0.520658
0.612283
0.559742
0.377945
0.14036
-0.0432038
-0.0835879
0.0393725
0.266809
0.489955
0.60714
0.566618
0.377892
0.114766
-0.104309
-0.175782
-0.0656857
0.174998
0.43341
0.592468
0.583651
0.403437
0.117906
-0.149422
-0.275699
-0.203319
0.0350172
0.328938
0.543846
0.587352
0.43788
0.149471
-0.155042
-0.336835
-0.314014
-0.0968455
0.215451
0.479033
0.580159
0.479033
0.215451
-0.0968455
-0.314014
-0.336835
-0.155042
0.149471
0.43788
0.587352
0.543846
0.328938
0.0350172
-0.203319
-0.275699
-0.149422
0.117906
0.403437
0.583651
0.592468
0.43341
0.174998
-0.0656857
-0.175782
-0.104309
0.114766
0.377892
0.566618
0.60714
0.489955
0.266809
0.0393725
-0.0835879
-0.0432038
0.14036
0.377945
0.559742
0.612283
0.520658
0.326357
0.118401
-0.00232692
0.0233712
0.181928
0.39472
0.562308
0.61664
0.541589
0.370788
0.181478
0.0657011
0.0811573
0.219256
0.41047
0.564643
0.61857
0.554733
0.399758
0.22144
0.10579
0.111102
0.234333
0.41308
0.562162
0.585109
0.484222
0.222537
-0.0837773
-0.289678
-0.297949
-0.10475
0.198657
0.46747
0.579703
0.487133
0.225295
-0.0912799
-0.313717
-0.337676
-0.152173
0.155852
0.438918
0.566147
0.48086
0.214493
-0.117148
-0.358881
-0.398568
-0.218482
0.0984168
0.401371
0.549413
0.476278
0.208226
-0.138815
-0.403506
-0.464711
-0.295832
0.0275012
0.354334
0.533665
0.486522
0.228153
-0.132412
-0.43027
-0.531165
-0.392422
-0.0739595
0.279526
0.50607
0.507155
0.27839
-0.0874504
-0.426492
-0.58677
-0.501231
-0.205883
0.168256
0.449232
0.513507
0.332552
-0.0208306
-0.389295
-0.605962
-0.579022
-0.319698
0.0595586
0.384546
0.510241
0.384546
0.0595586
-0.319698
-0.579022
-0.605962
-0.389295
-0.0208306
0.332552
0.513507
0.449232
0.168256
-0.205883
-0.501231
-0.58677
-0.426492
-0.0874504
0.27839
0.507155
0.50607
0.279526
-0.0739595
-0.392422
-0.531165
-0.43027
-0.132412
0.228153
0.486522
0.533665
0.354334
0.0275012
-0.295832
-0.464711
-0.403506
-0.138815
0.208226
0.476278
0.549413
0.401371
0.0984168
-0.218482
-0.398568
-0.358881
-0.117148
0.214493
0.48086
0.566147
0.438918
0.155852
-0.152173
-0.337676
-0.313717
-0.0912799
0.225295
0.487133
0.579703
0.46747
0.198657
-0.10475
-0.297949
-0.289678
-0.0837773
0.222537
0.484222
0.519532
0.390745
0.0591055
-0.323734
-0.577129
-0.58723
-0.349773
0.028832
0.369589
0.514819
0.401296
0.0762884
-0.312643
-0.582342
-0.611883
-0.388879
-0.0122976
0.340189
0.50388
0.406413
0.0880302
-0.307084
-0.593124
-0.642413
-0.434554
-0.0602467
0.305574
0.491739
0.416035
0.109759
-0.289112
-0.593737
-0.668846
-0.483771
-0.117224
0.262886
0.480319
0.440387
0.159479
-0.238369
-0.568871
-0.685725
-0.541739
-0.196324
0.196669
0.456968
0.472161
0.236336
-0.149023
-0.507516
-0.678754
-0.592642
-0.284144
0.112357
0.415124
0.491416
0.310526
-0.0505029
-0.427522
-0.64885
-0.62126
-0.355882
0.0333935
0.367888
0.497455
0.367888
0.0333935
-0.355882
-0.62126
-0.64885
-0.427522
-0.0505029
0.310526
0.491416
0.415124
0.112357
-0.284144
-0.592642
-0.678754
-0.507516
-0.149023
0.236336
0.472161
0.456968
0.196669
-0.196324
-0.541739
-0.685725
-0.568871
-0.238369
0.159479
0.440387
0.480319
0.262886
-0.117224
-0.483771
-0.668846
-0.593737
-0.289112
0.109759
0.416035
0.491739
0.305574
-0.0602467
-0.434554
-0.642413
-0.593124
-0.307084
0.0880302
0.406413
0.50388
0.340189
-0.0122976
-0.388879
-0.611883
-0.582342
-0.312643
0.0762884
0.401296
0.514819
0.369589
0.028832
-0.349773
-0.58723
-0.577129
-0.323734
0.0591055
0.390745
0.509724
0.376771
0.0347179
-0.359412
-0.619755
-0.630236
-0.386435
0.00351604
0.356034
0.508545
0.395892
0.0665291
-0.32877
-0.603402
-0.634476
-0.408902
-0.0259776
0.334771
0.506552
0.416181
0.103339
-0.289041
-0.575733
-0.628048
-0.424005
-0.0526163
0.313402
0.505273
0.441957
0.152362
-0.232228
-0.531123
-0.609944
-0.435678
-0.0834042
0.285437
0.502361
0.477086
0.223267
-0.1462
-0.459789
-0.576145
-0.446457
-0.125955
0.241127
0.488506
0.513788
0.310918
-0.0313984
-0.356081
-0.514682
-0.43886
-0.161007
0.194819
0.466851
0.540199
0.388841
0.0778646
-0.252148
-0.448457
-0.423859
-0.188891
0.15138
0.440442
0.551739
0.440442
0.15138
-0.188891
-0.423859
-0.448457
-0.252148
0.0778646
0.388841
0.540199
0.466851
0.194819
-0.161007
-0.43886
-0.514682
-0.356081
-0.0313984
0.310918
0.513788
0.488506
0.241127
-0.125955
-0.446457
-0.576145
-0.459789
-0.1462
0.223267
0.477086
0.502361
0.285437
-0.0834042
-0.435678
-0.609944
-0.531123
-0.232228
0.152362
0.441957
0.505273
0.313402
-0.0526163
-0.424005
-0.628048
-0.575733
-0.289041
0.103339
0.416181
0.506552
0.334771
-0.0259776
-0.408902
-0.634476
-0.603402
-0.32877
0.0665291
0.395892
0.508545
0.356034
0.00351604
-0.386435
-0.630236
-0.619755
-0.359412
0.0347179
0.376771
0.568902
0.456627
0.166031
-0.172658
-0.399259
-0.40858
-0.196414
0.139114
0.439556
0.570265
0.478568
0.203469
-0.131787
-0.368564
-0.396464
-0.202918
0.122716
0.427005
0.573806
0.505069
0.251736
-0.0728755
-0.315445
-0.362404
-0.192612
0.115405
0.416899
0.577438
0.534488
0.30944
0.00202902
-0.243824
-0.312986
-0.174376
0.107663
0.401175
0.575994
0.564981
0.377642
0.0956666
-0.15107
-0.247157
-0.149161
0.0969656
0.376329
0.564986
0.590454
0.448915
0.201692
-0.0390698
-0.159906
-0.104615
0.1003
0.358347
0.553335
0.608003
0.50613
0.290841
0.0572843
-0.0844026
-0.0665726
0.102117
0.341197
0.540318
0.616166
0.540318
0.341197
0.102117
-0.0665726
-0.0844026
0.0572843
0.290841
0.50613
0.608003
0.553335
0.358347
0.1003
-0.104615
-0.159906
-0.0390698
0.201692
0.448915
0.590454
0.564986
0.376329
0.0969656
-0.149161
-0.247157
-0.15107
0.0956666
0.377642
0.564981
0.575994
0.401175
0.107663
-0.174376
-0.312986
-0.243824
0.00202902
0.30944
0.534488
0.577438
0.416899
0.115405
-0.192612
-0.362404
-0.315445
-0.0728755
0.251736
0.505069
0.573806
0.427005
0.122716
-0.202918
-0.396464
-0.368564
-0.131787
0.203469
0.478568
0.570265
0.439556
0.139114
-0.196414
-0.40858
-0.399259
-0.172658
0.166031
0.456627
0.627073
0.554308
0.363979
0.137869
-0.0165148
-0.0229698
0.121602
0.345696
0.542534
0.62778
0.570194
0.393442
0.173609
0.0148957
-0.00441795
0.124864
0.338326
0.533916
0.628131
0.587809
0.431493
0.226483
0.0693657
0.0375312
0.146062
0.340022
0.526036
0.624819
0.602574
0.471917
0.288582
0.13768
0.0931049
0.17593
0.343065
0.513065
0.613344
0.610447
0.510621
0.355903
0.21649
0.160207
0.214027
0.348545
0.49662
0.594053
0.608584
0.54087
0.419463
0.29808
0.235918
0.264031
0.365937
0.488896
0.577769
0.602112
0.558146
0.463413
0.357537
0.291757
0.300457
0.378249
0.483892
0.568012
0.599126
0.568012
0.483892
0.378249
0.300457
0.291757
0.357537
0.463413
0.558146
0.602112
0.577769
0.488896
0.365937
0.264031
0.235918
0.29808
0.419463
0.54087
0.608584
0.594053
0.49662
0.348545
0.214027
0.160207
0.21649
0.355903
0.510621
0.610447
0.613344
0.513065
0.343065
0.17593
0.0931049
0.13768
0.288582
0.471917
0.602574
0.624819
0.526036
0.340022
0.146062
0.0375312
0.0693657
0.226483
0.431493
0.587809
0.628131
0.533916
0.338326
0.124864
-0.00441795
0.0148957
0.173609
0.393442
0.570194
0.62778
0.542534
0.345696
0.121602
-0.0229698
-0.0165148
0.137869
0.363979
0.554308
0.576151
0.552894
0.489503
0.409658
0.352524
0.35041
0.404345
0.483184
0.547493
0.573407
0.555329
0.499463
0.426495
0.371602
0.365561
0.411235
0.480957
0.538658
0.563394
0.551793
0.509376
0.451294
0.404917
0.396407
0.429797
0.482798
0.526009
0.544436
0.538549
0.513121
0.476003
0.443767
0.435291
0.454855
0.486417
0.509118
0.516029
0.513326
0.506124
0.49458
0.482404
0.47861
0.486139
0.494891
0.492993
0.482627
0.477427
0.485077
0.499683
0.511868
0.518795
0.519839
0.509402
0.483919
0.454389
0.441875
0.457394
0.491129
0.523353
0.541214
0.540939
0.52058
0.482534
0.442765
0.425515
0.442765
0.482534
0.52058
0.540939
0.541214
0.523353
0.491129
0.457394
0.441875
0.454389
0.483919
0.509402
0.519839
0.518795
0.511868
0.499683
0.485077
0.477427
0.482627
0.492993
0.494891
0.486139
0.47861
0.482404
0.49458
0.506124
0.513326
0.516029
0.509118
0.486417
0.454855
0.435291
0.443767
0.476003
0.513121
0.538549
0.544436
0.526009
0.482798
0.429797
0.396407
0.404917
0.451294
0.509376
0.551793
0.563394
0.538658
0.480957
0.411235
0.365561
0.371602
0.426495
0.499463
0.555329
0.573407
0.547493
0.483184
0.404345
0.35041
0.352524
0.409658
0.489503
0.552894
0.342056
0.371673
0.443352
0.518991
0.565832
0.56901
0.52707
0.451852
0.374499
0.335439
0.357497
0.428501
0.51072
0.567021
0.577292
0.536788
0.455933
0.366862
0.314716
0.329369
0.403695
0.498816
0.57041
0.590414
0.54978
0.458459
0.351685
0.281638
0.286955
0.366222
0.47884
0.571427
0.605649
0.566647
0.463452
0.33477
0.241212
0.232366
0.314612
0.446658
0.565286
0.619709
0.587179
0.474371
0.322468
0.200609
0.171051
0.25061
0.399672
0.54587
0.624603
0.603464
0.485887
0.31492
0.167161
0.11637
0.189404
0.349592
0.518089
0.61894
0.611558
0.496797
0.31847
0.156795
0.0918262
0.156795
0.31847
0.496797
0.611558
0.61894
0.518089
0.349592
0.189404
0.11637
0.167161
0.31492
0.485887
0.603464
0.624603
0.54587
0.399672
0.25061
0.171051
0.200609
0.322468
0.474371
0.587179
0.619709
0.565286
0.446658
0.314612
0.232366
0.241212
0.33477
0.463452
0.566647
0.605649
0.571427
0.47884
0.366222
0.286955
0.281638
0.351685
0.458459
0.54978
0.590414
0.57041
0.498816
0.403695
0.329369
0.314716
0.366862
0.455933
0.536788
0.577292
0.567021
0.51072
0.428501
0.357497
0.335439
0.374499
0.451852
0.52707
0.56901
0.565832
0.518991
0.443352
0.371673
-0.0457932
0.0333021
0.231874
0.45388
0.598618
0.607567
0.47678
0.257347
0.0468387
-0.0537525
0.0047228
0.193893
0.422118
0.584118
0.612217
0.49401
0.273977
0.0478609
-0.0771686
-0.0405425
0.140388
0.378464
0.562506
0.6134
0.508887
0.286861
0.0420271
-0.111003
-0.0989239
0.0729837
0.322896
0.533517
0.612572
0.526083
0.303998
0.0390528
-0.146244
-0.164005
-0.0053652
0.255155
0.495013
0.607491
0.544847
0.327352
0.0439817
-0.175632
-0.227939
-0.0881497
0.178512
0.445852
0.592503
0.556042
0.347179
0.0511024
-0.196948
-0.279913
-0.158963
0.109563
0.397996
0.57354
0.561642
0.365429
0.0664167
-0.197928
-0.302247
-0.197928
0.0664167
0.365429
0.561642
0.57354
0.397996
0.109563
-0.158963
-0.279913
-0.196948
0.0511024
0.347179
0.556042
0.592503
0.445852
0.178512
-0.0881497
-0.227939
-0.175632
0.0439817
0.327352
0.544847
0.607491
0.495013
0.255155
-0.0053652
-0.164005
-0.146244
0.0390528
0.303998
0.526083
0.612572
0.533517
0.322896
0.0729837
-0.0989239
-0.111003
0.0420271
0.286861
0.508887
0.6134
0.562506
0.378464
0.140388
-0.0405425
-0.0771686
0.0478609
0.273977
0.49401
0.612217
0.584118
0.422118
0.193893
0.0047228
-0.0537525
0.0468387
0.257347
0.47678
0.607567
0.598618
0.45388
0.231874
0.0333021
-0.440016
-0.324657
-0.030379
0.305725
0.528463
0.54276
0.342444
0.0112432
-0.299639
-0.445487
-0.360916
-0.0836913
0.25777
0.504533
0.549087
0.37217
0.0461472
-0.282059
-0.460264
-0.409019
-0.150964
0.195886
0.469488
0.548326
0.398348
0.0797179
-0.265629
-0.478012
-0.463101
-0.227434
0.123264
0.425607
0.543472
0.426131
0.11962
-0.241186
-0.489653
-0.515223
-0.307006
0.0433913
0.373608
0.53321
0.4534
0.1646
-0.207508
-0.490863
-0.558239
-0.380854
-0.0357938
0.317384
0.515352
0.471734
0.202592
-0.175043
-0.485552
-0.587681
-0.437508
-0.0999208
0.269134
0.497077
0.483573
0.233409
-0.143783
-0.471482
-0.599056
-0.471482
-0.143783
0.233409
0.483573
0.497077
0.269134
-0.0999208
-0.437508
-0.587681
-0.485552
-0.175043
0.202592
0.471734
0.515352
0.317384
-0.0357938
-0.380854
-0.558239
-0.490863
-0.207508
0.1646
0.4534
0.53321
0.373608
0.0433913
-0.307006
-0.515223
-0.489653
-0.241186
0.11962
0.426131
0.543472
0.425607
0.123264
-0.227434
-0.463101
-0.478012
-0.265629
0.0797179
0.398348
0.548326
0.469488
0.195886
-0.150964
-0.409019
-0.460264
-0.282059
0.0461472
0.37217
0.549087
0.504533
0.25777
-0.0836913
-0.360916
-0.445487
-0.299639
0.0112432
0.342444
0.54276
0.528463
0.305725
-0.030379
-0.324657
-0.662645
-0.530629
-0.190548
0.202849
0.466152
0.483849
0.248449
-0.138154
-0.496789
-0.663397
-0.5672
-0.248672
0.148921
0.439814
0.4947
0.290335
-0.0859514
-0.46118
-0.663264
-0.606338
-0.314133
0.0842596
0.403079
0.498725
0.330587
-0.0301298
-0.418868
-0.656697
-0.6421
-0.381203
0.0132515
0.358661
0.497883
0.37158
0.0328681
-0.365034
-0.638008
-0.668088
-0.443131
-0.0584751
0.309349
0.491458
0.40956
0.0980047
-0.303331
-0.607429
-0.680192
-0.491684
-0.121029
0.262405
0.480546
0.438139
0.153114
-0.246865
-0.573958
-0.680899
-0.52291
-0.166301
0.226037
0.470047
0.457585
0.193993
-0.2029
-0.546066
-0.679131
-0.546066
-0.2029
0.193993
0.457585
0.470047
0.226037
-0.166301
-0.52291
-0.680899
-0.573958
-0.246865
0.153114
0.438139
0.480546
0.262405
-0.121029
-0.491684
-0.680192
-0.607429
-0.303331
0.0980047
0.40956
0.491458
0.309349
-0.0584751
-0.443131
-0.668088
-0.638008
-0.365034
0.0328681
0.37158
0.497883
0.358661
0.0132515
-0.381203
-0.6421
-0.656697
-0.418868
-0.0301298
0.330587
0.498725
0.403079
0.0842596
-0.314133
-0.606338
-0.663264
-0.46118
-0.0859514
0.290335
0.4947
0.439814
0.148921
-0.248672
-0.5672
-0.663397
-0.496789
-0.138154
0.248449
0.483849
0.466152
0.202849
-0.190548
-0.530629
-0.614883
-0.486144
-0.155224
0.226566
0.481827
0.499635
0.272818
-0.101004
-0.449068
-0.611366
-0.517952
-0.208677
0.176536