# vtk DataFile Version 3.0
PFC simulation results
ASCII
DATASET STRUCTURED_POINTS
DIMENSIONS 128 128 1
ORIGIN 0 0 0
SPACING 1 1 1
POINT_DATA 16384
SCALARS psi double
LOOKUP_TABLE default
0.52178
0.396031
0.0767982
-0.279815
-0.495251
-0.465636
-0.205834
0.154718
0.430221
0.480749
0.277634
-0.0847425
-0.424775
-0.572269
-0.456821
-0.133109
0.237244
0.46509
0.437056
0.162947
-0.225986
-0.534862
-0.614069
-0.42773
-0.0631287
0.299498
0.480084
0.392788
0.0766303
-0.316683
-0.594134
-0.627336
-0.403054
-0.0243609
0.325492
0.478903
0.367048
0.040513
-0.347057
-0.611602
-0.636825
-0.414839
-0.0442503
0.30259
0.467342
0.382053
0.0857988
-0.288972
-0.573915
-0.65217
-0.499073
-0.179368
0.170974
0.40516
0.43785
0.266879
-0.0370829
-0.35324
-0.56333
-0.602127
-0.465613
-0.20201
0.096419
0.32463
0.408819
0.32463
0.096419
-0.20201
-0.465613
-0.602127
-0.56333
-0.35324
-0.0370829
0.266879
0.43785
0.40516
0.170974
-0.179368
-0.499073
-0.65217
-0.573915
-0.288972
0.0857988
0.382053
0.467342
0.30259
-0.0442503
-0.414839
-0.636825
-0.611602
-0.347057
0.040513
0.367048
0.478903
0.325492
-0.0243609
-0.403054
-0.627336
-0.594134
-0.316683
0.0766303
0.392788
0.480084
0.299498
-0.0631287
-0.42773
-0.614069
-0.534862
-0.225986
0.162947
0.437056
0.46509
0.237244
-0.133109
-0.456821
-0.572269
-0.424775
-0.0847425
0.277634
0.480749
0.430221
0.154718
-0.205834
-0.465636
-0.495251
-0.279815
0.0767982
0.396031
0.481764
0.34035
-0.0171198
-0.41302
-0.649287
-0.61459
-0.32505
0.0796457
0.394191
0.462293
0.251749
-0.134672
-0.500486
-0.663086
-0.546253
-0.203981
0.195475
0.45047
0.438316
0.166385
-0.231612
-0.554784
-0.646477
-0.465061
-0.094555
0.283299
0.483058
0.413764
0.109872
-0.281309
-0.567132
-0.61418
-0.402313
-0.0286141
0.326966
0.496523
0.407772
0.103593
-0.272793
-0.542207
-0.583907
-0.381618
-0.0255831
0.319114
0.497973
0.441496
0.179803
-0.169717
-0.4493
-0.540339
-0.409915
-0.114401
0.219444
0.454166
0.509755
0.38165
0.128014
-0.148078
-0.338636
-0.377121
-0.255517
-0.0200821
0.242791
0.440898
0.513343
0.440898
0.242791
-0.0200821
-0.255517
-0.377121
-0.338636
-0.148078
0.128014
0.38165
0.509755
0.454166
0.219444
-0.114401
-0.409915
-0.540339
-0.4493
-0.169717
0.179803
0.441496
0.497973
0.319114
-0.0255831
-0.381618
-0.583907
-0.542207
-0.272793
0.103593
0.407772
0.496523
0.326966
-0.0286141
-0.402313
-0.61418
-0.567132
-0.281309
0.109872
0.413764
0.483058
0.283299
-0.094555
-0.465061
-0.646477
-0.554784
-0.231612
0.166385
0.438316
0.45047
0.195475
-0.203981
-0.546253
-0.663086
-0.500486
-0.134672
0.251749
0.462293
0.394191
0.0796457
-0.32505
-0.61459
-0.649287
-0.41302
-0.0171198
0.34035
0.520536
0.389015
0.0555311
-0.315706
-0.537852
-0.503399
-0.228267
0.1536
0.45131
0.523404
0.341036
-0.00577892
-0.341291
-0.495461
-0.393261
-0.0839245
0.278558
0.514988
0.518402
0.292991
-0.0506356
-0.339268
-0.429038
-0.276986
0.042976
0.372262
0.55371
0.510663
0.26767
-0.0590917
-0.30863
-0.359786
-0.188954
0.121455
0.420771
0.572329
0.516803
0.283344
-0.0203598
-0.249682
-0.29692
-0.141537
0.142779
0.422516
0.576672
0.550966
0.364306
0.0995107
-0.124012
-0.206694
-0.115175
0.106581
0.358924
0.539796
0.593883
0.519814
0.356183
0.17046
0.0379731
0.0101789
0.0944737
0.254194
0.426408
0.551961
0.596956
0.551961
0.426408
0.254194
0.0944737
0.0101789
0.0379731
0.17046
0.356183
0.519814
0.593883
0.539796
0.358924
0.106581
-0.115175
-0.206694
-0.124012
0.0995107
0.364306
0.550966
0.576672
0.422516
0.142779
-0.141537
-0.29692
-0.249682
-0.0203598
0.283344
0.516803
0.572329
0.420771
0.121455
-0.188954
-0.359786
-0.30863
-0.0590917
0.26767
0.510663
0.55371
0.372262
0.042976
-0.276986
-0.429038
-0.339268
-0.0506356
0.292991
0.518402
0.514988
0.278558
-0.0839245
-0.393261
-0.495461
-0.341291
-0.00577892
0.341036
0.523404
0.45131
0.1536
-0.228267
-0.503399
-0.537852
-0.315706
0.0555311
0.389015
0.602012
0.502756
0.249075
-0.0373881
-0.21098
-0.182914
0.0328697
0.326992
0.554149
0.612881
0.483819
0.230263
-0.0211771
-0.140508
-0.066575
0.161495
0.426227
0.599728
0.609718
0.45928
0.221474
0.0152923
-0.0532312
0.0502135
0.270735
0.496135
0.622341
0.601315
0.448308
0.235065
0.0662204
0.0270477
0.136272
0.336534
0.52837
0.62769
0.600406
0.463413
0.278324
0.132839
0.0982692
0.190166
0.360173
0.525439
0.617322
0.608922
0.512005
0.369478
0.245199
0.196813
0.244541
0.359961
0.484536
0.567366
0.590141
0.561458
0.500983
0.433718
0.387264
0.381491
0.41649
0.471654
0.520373
0.548344
0.556586
0.548344
0.520373
0.471654
0.41649
0.381491
0.387264
0.433718
0.500983
0.561458
0.590141
0.567366
0.484536
0.359961
0.244541
0.196813
0.245199
0.369478
0.512005
0.608922
0.617322
0.525439
0.360173
0.190166
0.0982692
0.132839
0.278324
0.463413
0.600406
0.62769
0.52837
0.336534
0.136272
0.0270477
0.0662204
0.235065
0.448308
0.601315
0.622341
0.496135
0.270735
0.0502135
-0.0532312
0.0152923
0.221474
0.45928
0.609718
0.599728
0.426227
0.161495
-0.066575
-0.140508
-0.0211771
0.230263
0.483819
0.612881
0.554149
0.326992
0.0328697
-0.182914
-0.21098
-0.0373881
0.249075
0.502756
0.629539
0.57649
0.43931
0.28147
0.184555
0.201391
0.322222
0.481512
0.60061
0.630802
0.565814
0.437473
0.308596
0.247103
0.285567
0.399845
0.526477
0.605131
0.608244
0.541629
0.437551
0.347427
0.319148
0.366788
0.460381
0.547965
0.590761
0.578448
0.521916
0.446789
0.389323
0.380333
0.423717
0.491809
0.546435
0.565967
0.55095
0.512471
0.46637
0.433646
0.432294
0.462399
0.502438
0.526677
0.526976
0.513707
0.499565
0.490502
0.489408
0.498483
0.513004
0.517084
0.495496
0.453581
0.418882
0.418651
0.457809
0.517685
0.571594
0.598956
0.587158
0.531647
0.445585
0.365147
0.332165
0.365147
0.445585
0.531647
0.587158
0.598956
0.571594
0.517685
0.457809
0.418651
0.418882
0.453581
0.495496
0.517084
0.513004
0.498483
0.489408
0.490502
0.499565
0.513707
0.526976
0.526677
0.502438
0.462399
0.432294
0.433646
0.46637
0.512471
0.55095
0.565967
0.546435
0.491809
0.423717
0.380333
0.389323
0.446789
0.521916
0.578448
0.590761
0.547965
0.460381
0.366788
0.319148
0.347427
0.437551
0.541629
0.608244
0.605131
0.526477
0.399845
0.285567
0.247103
0.308596
0.437473
0.565814
0.630802
0.60061
0.481512
0.322222
0.201391
0.184555
0.28147
0.43931
0.57649
0.504647
0.503821
0.498834
0.488965
0.482289
0.486899
0.497896
0.5019
0.494656
0.485999
0.485967
0.494033
0.504504
0.514432
0.52
0.511673
0.48408
0.44968
0.432454
0.446106
0.483151
0.524039
0.550684
0.549747
0.513487
0.450347
0.391078
0.371231
0.404084
0.471808
0.540041
0.578123
0.567713
0.505544
0.412206
0.332393
0.310302
0.359239
0.45364
0.547076
0.598157
0.583612
0.501261
0.37758
0.267466
0.22727
0.279379
0.398981
0.529735
0.614531
0.616852
0.525608
0.362271
0.187804
0.0809276
0.0937504
0.222076
0.407455
0.56822
0.639474
0.591895
0.433852
0.217677
0.0316378
-0.0413954
0.0316378
0.217677
0.433852
0.591895
0.639474
0.56822
0.407455
0.222076
0.0937504
0.0809276
0.187804
0.362271
0.525608
0.616852
0.614531
0.529735
0.398981
0.279379
0.22727
0.267466
0.37758
0.501261
0.583612
0.598157
0.547076
0.45364
0.359239
0.310302
0.332393
0.412206
0.505544
0.567713
0.578123
0.540041
0.471808
0.404084
0.371231
0.391078
0.450347
0.513487
0.549747
0.550684
0.524039
0.483151
0.446106
0.432454
0.44968
0.48408
0.511673
0.52
0.514432
0.504504
0.494033
0.485967
0.485999
0.494656
0.5019
0.497896
0.486899
0.482289
0.488965
0.498834
0.503821
0.194935
0.247059
0.375722
0.515138
0.600326
0.595329
0.499058
0.34788
0.211164
0.159172
0.220485
0.363682
0.515623
0.603118
0.584982
0.462194
0.282521
0.130218
0.0835815
0.168147
0.341184
0.515451
0.607296
0.572849
0.419617
0.209919
0.0429682
0.00297937
0.110809
0.312622
0.508707
0.607025
0.562207
0.386613
0.152134
-0.0319341
-0.0758432
0.0416624
0.263578
0.483507
0.60113
0.564579
0.381803
0.123157
-0.0968497
-0.176415
-0.0794966
0.149491
0.40583
0.57596
0.588087
0.429097
0.14973
-0.138919
-0.312369
-0.29727
-0.101015
0.191315
0.451704
0.57177
0.503284
0.264964
-0.0548759
-0.322766
-0.425911
-0.322766
-0.0548759
0.264964
0.503284
0.57177
0.451704
0.191315
-0.101015
-0.29727
-0.312369
-0.138919
0.14973
0.429097
0.588087
0.57596
0.40583
0.149491
-0.0794966
-0.176415
-0.0968497
0.123157
0.381803
0.564579
0.60113
0.483507
0.263578
0.0416624
-0.0758432
-0.0319341
0.152134
0.386613
0.562207
0.607025
0.508707
0.312622
0.110809
0.00297937
0.0429682
0.209919
0.419617
0.572849
0.607296
0.515451
0.341184
0.168147
0.0835815
0.130218
0.282521
0.462194
0.584982
0.603118
0.515623
0.363682
0.220485
0.159172
0.211164
0.34788
0.499058
0.595329
0.600326
0.515138
0.375722
0.247059
-0.215923
-0.117863
0.12844
0.40156
0.570919
0.56072
0.372439
0.0861932
-0.163075
-0.253687
-0.141747
0.11835
0.397674
0.560346
0.530053
0.314464
0.00659959
-0.246927
-0.322982
-0.185281
0.100118
0.392773
0.550938
0.500315
0.257567
-0.0707345
-0.328142
-0.392059
-0.233384
0.0732684
0.379786
0.540543
0.482156
0.225306
-0.117879
-0.386526
-0.456719
-0.29847
0.0164022
0.340782
0.524868
0.487937
0.241175
-0.112893
-0.414879
-0.531147
-0.414658
-0.115297
0.235054
0.480281
0.516948
0.326653
-0.0201355
-0.377791
-0.593258
-0.581888
-0.350022
0.00752769
0.33579
0.495301
0.422746
0.143386
-0.230878
-0.540066
-0.657755
-0.540066
-0.230878
0.143386
0.422746
0.495301
0.33579
0.00752769
-0.350022
-0.581888
-0.593258
-0.377791
-0.0201355
0.326653
0.516948
0.480281
0.235054
-0.115297
-0.414658
-0.531147
-0.414879
-0.112893
0.241175
0.487937
0.524868
0.340782
0.0164022
-0.29847
-0.456719
-0.386526
-0.117879
0.225306
0.482156
0.540543
0.379786
0.0732684
-0.233384
-0.392059
-0.328142
-0.0707345
0.257567
0.500315
0.550938
0.392773
0.100118
-0.185281
-0.322982
-0.246927
0.00659959
0.314464
0.530053
0.560346
0.397674
0.11835
-0.141747
-0.253687
-0.163075
0.0861932
0.372439
0.56072
0.570919
0.40156
0.12844
-0.117863
-0.555968
-0.428416
-0.103759
0.26259
0.493416
0.482714
0.233505
-0.141991
-0.463426
-0.578527
-0.435669
-0.0998315
0.267403
0.486867
0.455862
0.185497
-0.200778
-0.516334
-0.612836
-0.447726
-0.0956066
0.274561
0.483013
0.432948
0.14465
-0.249122
-0.558864
-0.641696
-0.462396
-0.100637
0.272594
0.479299
0.426242
0.135819
-0.25981
-0.573628
-0.664737
-0.496167
-0.140359
0.240011
0.468906
0.447338
0.184762
-0.204209
-0.54193
-0.681015
-0.567253
-0.247091
0.141787
0.426586
0.488958
0.306489
-0.0460101
-0.415251
-0.641375
-0.635691
-0.401906
-0.0340631
0.30929
0.483038
0.421115
0.149257
-0.219809
-0.525989
-0.642732
-0.525989
-0.219809
0.149257
0.421115
0.483038
0.30929
-0.0340631
-0.401906
-0.635691
-0.641375
-0.415251
-0.0460101
0.306489
0.488958
0.426586
0.141787
-0.247091
-0.567253
-0.681015
-0.54193
-0.204209
0.184762
0.447338
0.468906
0.240011
-0.140359
-0.496167
-0.664737
-0.573628
-0.25981
0.135819
0.426242
0.479299
0.272594
-0.100637
-0.462396
-0.641696
-0.558864
-0.249122
0.14465
0.432948
0.483013
0.274561
-0.0956066
-0.447726
-0.612836
-0.516334
-0.200778
0.185497
0.455862
0.486867
0.267403
-0.0998315
-0.435669
-0.578527
-0.463426
-0.141991
0.233505
0.482714
0.493416
0.26259
-0.103759
-0.428416
-0.673893
-0.537043
-0.186874
0.211206
0.464539
0.456842
0.191566
-0.208981
-0.550758
-0.672999
-0.521965
-0.164446
0.230042
0.470605
0.447325
0.171413
-0.228188
-0.557064
-0.660997
-0.494488
-0.131556
0.255428
0.480666
0.443247
0.161698
-0.232226
-0.548089
-0.639555
-0.46724
-0.10737
0.270888
0.489477
0.45386
0.182542
-0.199775
-0.511914
-0.612075
-0.458309
-0.117275
0.255087
0.488902
0.487763
0.257144
-0.100694
-0.421897
-0.563614
-0.468024
-0.175566
0.186119
0.458083
0.53262
0.388811
0.0897237
-0.233234
-0.436896
-0.436249
-0.232737
0.0876559
0.386064
0.54055
0.497453
0.277661
-0.0281921
-0.287051
-0.387102
-0.287051
-0.0281921
0.277661
0.497453
0.54055
0.386064
0.0876559
-0.232737
-0.436249
-0.436896
-0.233234
0.0897237
0.388811
0.53262
0.458083
0.186119
-0.175566
-0.468024
-0.563614
-0.421897
-0.100694
0.257144
0.487763
0.488902
0.255087
-0.117275
-0.458309
-0.612075
-0.511914
-0.199775
0.182542
0.45386
0.489477
0.270888
-0.10737
-0.46724
-0.639555
-0.548089
-0.232226
0.161698
0.443247
0.480666
0.255428
-0.131556
-0.494488
-0.660997
-0.557064
-0.228188
0.171413
0.447325
0.470605
0.230042
-0.164446
-0.521965
-0.672999
-0.550758
-0.208981
0.191566
0.456842
0.464539
0.211206
-0.186874
-0.537043
-0.519901
-0.393915
-0.0737025
0.287465
0.517089
0.513518
0.279805
-0.0777373
-0.386641
-0.498483
-0.361686
-0.0392101
0.314418
0.531791
0.519123
0.285488
-0.0611029
-0.352592
-0.448539
-0.304546
0.0121309
0.349255
0.549181
0.528364
0.300493
-0.029244
-0.302037
-0.387269
-0.245815
0.0558649
0.373704
0.562236
0.545926
0.33722
0.0305002
-0.229736
-0.320967
-0.20218
0.070966
0.370366
0.562938
0.575549
0.410946
0.141803
-0.109688
-0.227939
-0.160964
0.0591602
0.331191
0.536992
0.601282
0.510913
0.308229
0.0819321
-0.0652581
-0.0671419
0.0754086
0.296391
0.498351
0.603182
0.579676
0.441549
0.244028
0.0724381
0.00490314
0.0724381
0.244028
0.441549
0.579676
0.603182
0.498351
0.296391
0.0754086
-0.0671419
-0.0652581
0.0819321
0.308229
0.510913
0.601282
0.536992
0.331191
0.0591602
-0.160964
-0.227939
-0.109688
0.141803
0.410946
0.575549
0.562938
0.370366
0.070966
-0.20218
-0.320967
-0.229736
0.0305002
0.33722
0.545926
0.562236
0.373704
0.0558649
-0.245815
-0.387269
-0.302037
-0.029244
0.300493
0.528364
0.549181
0.349255
0.0121309
-0.304546
-0.448539
-0.352592
-0.0611029
0.285488
0.519123
0.531791
0.314418
-0.0392101
-0.361686
-0.498483
-0.386641
-0.0777373
0.279805
0.513518
0.517089
0.287465
-0.0737025
-0.393915
-0.161542
-0.0668893
0.170273
0.432969
0.59838
0.597685
0.433336
0.17746
-0.048061
-0.131113
-0.0305721
0.20334
0.455338
0.609524
0.604755
0.447657
0.208908
0.00308192
-0.0671001
0.0328957
0.251995
0.48178
0.61825
0.609814
0.465576
0.250497
0.0671624
0.00659871
0.0981235
0.294189
0.497917
0.619131
0.614601
0.492358
0.306434
0.14337
0.0826716
0.152973
0.316733
0.493021
0.605616
0.617461
0.532213
0.38751
0.247994
0.179723
0.214182
0.330413
0.468905
0.569317
0.600894
0.563341
0.476528
0.377599
0.312404
0.31239
0.374637
0.46422
0.538916
0.574304
0.566708
0.522458
0.456277
0.395444
0.370599
0.395444
0.456277
0.522458
0.566708
0.574304
0.538916
0.46422
0.374637
0.31239
0.312404
0.377599
0.476528
0.563341
0.600894
0.569317
0.468905
0.330413
0.214182
0.179723
0.247994
0.38751
0.532213
0.617461
0.605616
0.493021
0.316733
0.152973
0.0826716
0.14337
0.306434
0.492358
0.614601
0.619131
0.497917
0.294189
0.0981235
0.00659871
0.0671624
0.250497
0.465576
0.609814
0.61825
0.48178
0.251995
0.0328957
-0.0671001
0.00308192
0.208908
0.447657
0.604755
0.609524
0.455338
0.20334
-0.0305721
-0.131113
-0.048061
0.17746
0.433336
0.597685
0.59838
0.432969
0.170273
-0.0668893
0.240101
0.287483
0.403497
0.527628
0.603357
0.603052
0.52884
0.410957
0.304546
0.265301
0.314213
0.423131
0.53464
0.599295
0.596464
0.531493
0.431955
0.344722
0.31564
0.359704
0.449971
0.537563
0.584738
0.579558
0.529107
0.454657
0.390817
0.371393
0.406053
0.471812
0.531179
0.559691
0.554321
0.522788
0.4776
0.438568
0.42672
0.447851
0.484965
0.512839
0.520502
0.514986
0.506157
0.497303
0.490433
0.490527
0.49812
0.502204
0.48977
0.464085
0.445936
0.453391
0.484864
0.523338
0.551823
0.559897
0.539855
0.489809
0.426043
0.382309
0.386747
0.438799
0.509935
0.565926
0.586393
0.565926
0.509935
0.438799
0.386747
0.382309
0.426043
0.489809
0.539855
0.559897
0.551823
0.523338
0.484864
0.453391
0.445936
0.464085
0.48977
0.502204
0.49812
0.490527
0.490433
0.497303
0.506157
0.514986
0.520502
0.512839
0.484965
0.447851
0.42672
0.438568
0.4776
0.522788
0.554321
0.559691
0.531179
0.471812
0.406053
0.371393
0.390817
0.454657
0.529107
0.579558
0.584738
0.537563
0.449971
0.359704
0.31564
0.344722
0.431955
0.531493
0.596464
0.599295
0.53464
0.423131
0.314213
0.265301
0.304546
0.410957
0.52884
0.603052
0.603357
0.527628
0.403497
0.287483
0.5214
0.51543
0.495922
0.465836
0.440718
0.438425
0.461364
0.494602
0.521158
0.533155
0.527136
0.499472
0.455723
0.417887
0.410812
0.440567
0.489936
0.533987
0.555356
0.544849
0.499721
0.432859
0.376837
0.365184
0.40659
0.478769
0.545757
0.578864
0.563107
0.497572
0.403545
0.325348
0.306523
0.35945
0.456955
0.551133
0.600611
0.583385
0.498592
0.373707
0.264564
0.228132
0.28594
0.410004
0.540367
0.619029
0.612071
0.513924
0.353721
0.197712
0.12158
0.165565
0.309612
0.484261
0.609812
0.633257
0.539997
0.357775
0.159533
0.0373207
0.0513869
0.195508
0.399673
0.569057
0.633405
0.569057
0.399673
0.195508
0.0513869
0.0373207
0.159533
0.357775
0.539997
0.633257
0.609812
0.484261
0.309612
0.165565
0.12158
0.197712
0.353721
0.513924
0.612071
0.619029
0.540367
0.410004
0.28594
0.228132
0.264564
0.373707
0.498592
0.583385
0.600611
0.551133
0.456955
0.35945
0.306523
0.325348
0.403545
0.497572
0.563107
0.578864
0.545757
0.478769
0.40659
0.365184
0.376837
0.432859
0.499721
0.544849
0.555356
0.533987
0.489936
0.440567
0.410812
0.417887
0.455723
0.499472
0.527136
0.533155
0.521158
0.494602
0.461364
0.438425
0.440718
0.465836
0.495922
0.51543
0.619084
0.561465
0.409969
0.228377
0.103127
0.0975046
0.214762
0.395955
0.553632
0.618459
0.563059
0.405435
0.210391
0.0699328
0.0546444
0.17299
0.366078
0.540086
0.616362
0.560969
0.390886
0.175721
0.016298
-0.0083437
0.114753
0.325237
0.521213
0.613359
0.560536
0.3782
0.140251
-0.0432768
-0.0832473
0.0402601
0.268062
0.491295
0.608545
0.568371
0.380244
0.117551
-0.101669
-0.17387
-0.0647142
0.175263
0.433512
0.593016
0.585028
0.405476
0.11973
-0.14902
-0.277474
-0.207014
0.0306263
0.325326
0.541723
0.58619
0.436205
0.145619
-0.161994
-0.346546
-0.325033
-0.107086
0.207765
0.47413
0.576439
0.47413
0.207765
-0.107086
-0.325033
-0.346546
-0.161994
0.145619
0.436205
0.58619
0.541723
0.325326
0.0306263
-0.207014
-0.277474
-0.14902
0.11973
0.405476
0.585028
0.593016
0.433512
0.175263
-0.0647142
-0.17387
-0.101669
0.117551
0.380244
0.568371
0.608545
0.491295
0.268062
0.0402601
-0.0832473
-0.0432768
0.140251
0.3782
0.560536
0.613359
0.521213
0.325237
0.114753
-0.0083437
0.016298
0.175721
0.390886
0.560969
0.616362
0.540086
0.366078
0.17299
0.0546444
0.0699328
0.210391
0.405435
0.563059
0.618459
0.553632
0.395955
0.214762
0.0975046
0.103127
0.228377
0.409969
0.561465
0.583212
0.481774
0.218676
-0.0893005
-0.296488
-0.305296
-0.111642
0.193174
0.463642
0.576663
0.48333
0.219446
-0.0993693
-0.323098
-0.346898
-0.159854
0.150558
0.435813
0.564019
0.478222
0.210468
-0.122309
-0.364046
-0.402512
-0.22051
0.0981883
0.402157
0.55035
0.476897
0.208493
-0.138646
-0.403071
-0.463717
-0.294227
0.0294297
0.356165
0.535256
0.488099
0.229982
-0.130358
-0.428299
-0.529577
-0.391312
-0.0732257
0.280129
0.506867
0.508406
0.280026
-0.0859899
-0.425991
-0.5877
-0.503434
-0.208578
0.166078
0.448129
0.513226
0.332217
-0.0222498
-0.392408
-0.610663
-0.584601
-0.325029
0.055574
0.382157
0.508553
0.382157
0.055574
-0.325029
-0.584601
-0.610663
-0.392408
-0.0222498
0.332217
0.513226
0.448129
0.166078
-0.208578
-0.503434
-0.5877
-0.425991
-0.0859899
0.280026
0.508406
0.506867
0.280129
-0.0732257
-0.391312
-0.529577
-0.428299
-0.130358
0.229982
0.488099
0.535256
0.356165
0.0294297
-0.294227
-0.463717
-0.403071
-0.138646
0.208493
0.476897
0.55035
0.402157
0.0981883
-0.22051
-0.402512
-0.364046
-0.122309
0.210468
0.478222
0.564019
0.435813
0.150558
-0.159854
-0.346898
-0.323098
-0.0993693
0.219446
0.48333
0.576663
0.463642
0.193174
-0.111642
-0.305296
-0.296488
-0.0893005
0.218676
0.481774
0.518185
0.389191
0.0570294
-0.326441
-0.580471
-0.591193
-0.354099
0.0247947
0.366411
0.512406
0.39899
0.0734474
-0.316189
-0.586318
-0.615876
-0.392442
-0.0150154
0.338385
0.502553
0.40494
0.0861076
-0.30918
-0.594759
-0.643041
-0.434006
-0.0588814
0.307036
0.492717
0.416384
0.109696
-0.289176
-0.593378
-0.667782
-0.482004
-0.115156
0.264644
0.481414
0.440896
0.159694
-0.238178
-0.568537
-0.685178
-0.540983
-0.19547
0.197455
0.457625
0.472779
0.237003
-0.148389
-0.507112
-0.678707
-0.592908
-0.284492
0.112272
0.415572
0.49248
0.312109
-0.0486669
-0.42577
-0.647385
-0.620075
-0.354818
0.0345373
0.369201
0.498851
0.369201
0.0345373
-0.354818
-0.620075
-0.647385
-0.42577
-0.0486669
0.312109
0.49248
0.415572
0.112272
-0.284492
-0.592908
-0.678707
-0.507112
-0.148389
0.237003
0.472779
0.457625
0.197455
-0.19547
-0.540983
-0.685178
-0.568537
-0.238178
0.159694
0.440896
0.481414
0.264644
-0.115156
-0.482004
-0.667782
-0.593378
-0.289176
0.109696
0.416384
0.492717
0.307036
-0.0588814
-0.434006
-0.643041
-0.594759
-0.30918
0.0861076
0.40494
0.502553
0.338385
-0.0150154
-0.392442
-0.615876
-0.586318
-0.316189
0.0734474
0.39899
0.512406
0.366411
0.0247947
-0.354099
-0.591193
-0.580471
-0.326441
0.0570294
0.389191
0.509804
0.37687
0.034841
-0.359359
-0.620007
-0.631085
-0.387925
0.00182076
0.354793
0.508157
0.396388
0.0677233
-0.327197
-0.601817
-0.633175
-0.408022
-0.0254651
0.335089
0.506838
0.41656
0.103958
-0.288002
-0.574136
-0.625868
-0.421425
-0.0501318
0.315188
0.506063
0.441862
0.151756
-0.23284
-0.531256
-0.609308
-0.434307
-0.0817542
0.286672
0.502688
0.476417
0.221848
-0.147869
-0.46113
-0.576758
-0.446276
-0.125265
0.241834
0.488848
0.513704
0.310616
-0.0315805
-0.355833
-0.51386
-0.437555
-0.159492
0.196275
0.468237
0.541889
0.391441
0.0818329
-0.24684
-0.442284
-0.417506
-0.183107
0.15603
0.443965
0.554795
0.443965
0.15603
-0.183107
-0.417506
-0.442284
-0.24684
0.0818329
0.391441
0.541889
0.468237
0.196275
-0.159492
-0.437555
-0.51386
-0.355833
-0.0315805
0.310616
0.513704
0.488848
0.241834
-0.125265
-0.446276
-0.576758
-0.46113
-0.147869
0.221848
0.476417
0.502688
0.286672
-0.0817542
-0.434307
-0.609308
-0.531256
-0.23284
0.151756
0.441862
0.506063
0.315188
-0.0501318
-0.421425
-0.625868
-0.574136
-0.288002
0.103958
0.41656
0.506838
0.335089
-0.0254651
-0.408022
-0.633175
-0.601817
-0.327197
0.0677233
0.396388
0.508157
0.354793
0.00182076
-0.387925
-0.631085
-0.620007
-0.359359
0.034841
0.37687
0.569888
0.457681
0.167204
-0.171493
-0.398361
-0.408176
-0.196507
0.138871
0.439718
0.571336
0.480893
0.207109
-0.12722
-0.363784
-0.392152
-0.199526
0.125044
0.428494
0.57496
0.506449
0.253747
-0.0701354
-0.312168
-0.35892
-0.189334
0.117981
0.41839
0.577804
0.533976
0.308426
0.000974625
-0.24446
-0.312912
-0.173614
0.108711
0.401887
0.575864
0.563798
0.375531
0.0931309
-0.153291
-0.248466
-0.149406
0.0974364
0.376879
0.56508
0.589937
0.448046
0.201026
-0.0389457
-0.158721
-0.10261
0.10247
0.360022
0.554349
0.608908
0.507981
0.29463
0.0633144
-0.0767485
-0.0585776
0.108986
0.345953
0.543068
0.618101
0.543068
0.345953
0.108986
-0.0585776
-0.0767485
0.0633144
0.29463
0.507981
0.608908
0.554349
0.360022
0.10247
-0.10261
-0.158721
-0.0389457
0.201026
0.448046
0.589937
0.56508
0.376879
0.0974364
-0.149406
-0.248466
-0.153291
0.0931309
0.375531
0.563798
0.575864
0.401887
0.108711
-0.173614
-0.312912
-0.24446
0.000974625
0.308426
0.533976
0.577804
0.41839
0.117981
-0.189334
-0.35892
-0.312168
-0.0701354
0.253747
0.506449
0.57496
0.428494
0.125044
-0.199526
-0.392152
-0.363784
-0.12722
0.207109
0.480893
0.571336
0.439718
0.138871
-0.196507
-0.408176
-0.398361
-0.171493
0.167204
0.457681
0.628243
0.555433
0.364944
0.138532
-0.0162354
-0.0230125
0.121452
0.345744
0.543087
0.62911
0.572565
0.396982
0.178069
0.019653
-7.3217e-05
0.128264
0.340576
0.535219
0.629016
0.588902
0.433256
0.229021
0.0724161
0.0406412
0.148761
0.341924
0.526973
0.624882
0.601997
0.47096
0.28755
0.136916
0.0928759
0.176289
0.343775
0.513689
0.613454
0.609761
0.509107
0.353884
0.214582
0.159005
0.213749
0.348919
0.497075
0.594081
0.608015
0.539948
0.418743
0.298144
0.236995
0.265757
0.367483
0.489466
0.577162
0.600966
0.55771
0.464923
0.361483
0.297493
0.30642
0.382661
0.485657
0.567355
0.597499
0.567355
0.485657
0.382661
0.30642
0.297493
0.361483
0.464923
0.55771
0.600966
0.577162
0.489466
0.367483
0.265757
0.236995
0.298144
0.418743
0.539948
0.608015
0.594081
0.497075
0.348919
0.213749
0.159005
0.214582
0.353884
0.509107
0.609761
0.613454
0.513689
0.343775
0.176289
0.0928759
0.136916
0.28755
0.47096
0.601997
0.624882
0.526973
0.341924
0.148761
0.0406412
0.0724161
0.229021
0.433256
0.588902
0.629016
0.535219
0.340576
0.128264
-7.3217e-05
0.019653
0.178069
0.396982
0.572565
0.62911
0.543087
0.345744
0.121452
-0.0230125
-0.0162354
0.138532
0.364944
0.555433
0.577384
0.553883
0.489865
0.409283
0.35163
0.349445
0.403765
0.483223
0.548084
0.57435
0.556556
0.501085
0.428591
0.374017
0.36794
0.413194
0.482243
0.539241
0.563499
0.551833
0.509782
0.452303
0.406455
0.398173
0.431443
0.484057
0.526759
0.544699
0.538425
0.512728
0.475492
0.44335
0.435206
0.455258
0.487281
0.510222
0.517048
0.513942
0.506149
0.494075
0.481704
0.478147
0.486156
0.495286
0.493417
0.482736
0.477105
0.484514
0.499275
0.51199
0.519509
0.520711
0.509618
0.48273
0.451646
0.438273
0.454233
0.489672
0.524091
0.543493
0.543192
0.521044
0.480153
0.437822
0.41955
0.437822
0.480153
0.521044
0.543192
0.543493
0.524091
0.489672
0.454233
0.438273
0.451646
0.48273
0.509618
0.520711
0.519509
0.51199
0.499275
0.484514
0.477105
0.482736
0.493417
0.495286
0.486156
0.478147
0.481704
0.494075
0.506149
0.513942
0.517048
0.510222
0.487281
0.455258
0.435206
0.44335
0.475492
0.512728
0.538425
0.544699
0.526759
0.484057
0.431443
0.398173
0.406455
0.452303
0.509782
0.551833
0.563499
0.539241
0.482243
0.413194
0.36794
0.374017
0.428591
0.501085
0.556556
0.57435
0.548084
0.483223
0.403765
0.349445
0.35163
0.409283
0.489865
0.553883
0.34364
0.372824
0.443452
0.518017
0.564333
0.567788
0.526745
0.452491
0.375546
0.336105
0.357334
0.427691
0.509866
0.566665
0.577615
0.537613
0.456822
0.367293
0.314372
0.328353
0.402478
0.497959
0.570251
0.590973
0.550875
0.459809
0.352979
0.282655
0.287633
0.366607
0.47903
0.571587
0.606011
0.567453
0.464827
0.336635
0.243327
0.234434
0.316346
0.447866
0.565981
0.62011
0.58753
0.474762
0.322824
0.200822
0.171112
0.250641
0.399835
0.546238
0.625036
0.603518
0.484885
0.312305
0.162929
0.111229
0.184543
0.346141
0.51646
0.61849
0.610842
0.494227
0.313144
0.149067
0.0831594
0.149067
0.313144
0.494227
0.610842
0.61849
0.51646
0.346141
0.184543
0.111229
0.162929
0.312305
0.484885
0.603518
0.625036
0.546238
0.399835
0.250641
0.171112
0.200822
0.322824
0.474762
0.58753
0.62011
0.565981
0.447866
0.316346
0.234434
0.243327
0.336635
0.464827
0.567453
0.606011
0.571587
0.47903
0.366607
0.287633
0.282655
0.352979
0.459809
0.550875
0.590973
0.570251
0.497959
0.402478
0.328353
0.314372
0.367293
0.456822
0.537613
0.577615
0.566665
0.509866
0.427691
0.357334
0.336105
0.375546
0.452491
0.526745
0.567788
0.564333
0.518017
0.443452
0.372824
-0.043882
0.0346869
0.232025
0.452903
0.597341
0.607031
0.477636
0.259356
0.0488751
-0.0530224
0.0034452
0.190999
0.418882
0.581874
0.61166
0.495045
0.275782
0.0492167
-0.0772014
-0.0421324
0.137864
0.376067
0.561151
0.61348
0.5103
0.289107
0.0443833
-0.109082
-0.0975799
0.0738746
0.323526
0.5341
0.613361
0.527332
0.305838
0.0414038
-0.143564
-0.161164
-0.00258847
0.257519
0.496681
0.608459
0.545326
0.327579
0.044138
-0.175409
-0.22753
-0.0874892
0.17935
0.446636
0.592919
0.555707
0.345675
0.0481979
-0.201058
-0.284631
-0.163451
0.106105
0.395856
0.57218
0.559902
0.362091
0.0608984
-0.205216
-0.31019
-0.205216
0.0608984
0.362091
0.559902
0.57218
0.395856
0.106105
-0.163451
-0.284631
-0.201058
0.0481979
0.345675
0.555707
0.592919
0.446636
0.17935
-0.0874892
-0.22753
-0.175409
0.044138
0.327579
0.545326
0.608459
0.496681
0.257519
-0.00258847
-0.161164
-0.143564
0.0414038
0.305838
0.527332
0.613361
0.5341
0.323526
0.0738746
-0.0975799
-0.109082
0.0443833
0.289107
0.5103
0.61348
0.561151
0.376067
0.137864
-0.0421324
-0.0772014
0.0492167
0.275782
0.495045
0.61166
0.581874
0.418882
0.190999
0.0034452
-0.0530224
0.0488751
0.259356
0.477636
0.607031
0.597341
0.452903
0.232025
0.0346869
-0.43847
-0.323591
-0.0303892
0.304897
0.527805
0.543377
0.344843
0.0147656
-0.296639
-0.444658
-0.363
-0.0880328
0.253076
0.50153
0.548868
0.374576
0.0498268
-0.279074
-0.459436
-0.410662
-0.154269
0.192493
0.467522
0.54853
0.400596
0.0831397
-0.26227
-0.475559
-0.461652
-0.226657
0.123772
0.426185
0.544385
0.42755
0.12153
-0.238977
-0.487285
-0.512658
-0.304269
0.0459572
0.375526
0.534269
0.453729
0.16451
-0.207654
-0.490734
-0.557618
-0.37971
-0.0343832
0.318591
0.515941
0.471468
0.20139
-0.177052
-0.488036
-0.59026
-0.439811
-0.101616
0.268127
0.496401
0.482559
0.231418
-0.146959
-0.475514
-0.603376
-0.475514
-0.146959
0.231418
0.482559
0.496401
0.268127
-0.101616
-0.439811
-0.59026
-0.488036
-0.177052
0.20139
0.471468
0.515941
0.318591
-0.0343832
-0.37971
-0.557618
-0.490734
-0.207654
0.16451
0.453729
0.534269
0.375526
0.0459572
-0.304269
-0.512658
-0.487285
-0.238977
0.12153
0.42755
0.544385
0.426185
0.123772
-0.226657
-0.461652
-0.475559
-0.26227
0.0831397
0.400596
0.54853
0.467522
0.192493
-0.154269
-0.410662
-0.459436
-0.279074
0.0498268
0.374576
0.548868
0.50153
0.253076
-0.0880328
-0.363
-0.444658
-0.296639
0.0147656
0.344843
0.543377
0.527805
0.304897
-0.0303892
-0.323591
-0.662457
-0.530762
-0.191317
0.201876
0.465958
0.485375
0.251908
-0.133815
-0.493516
-0.662863
-0.569993
-0.253875
0.143621
0.436864
0.495361
0.294311
-0.0804639
-0.456709
-0.661592
-0.607806
-0.31776
0.0804034
0.40092
0.499225
0.333552
-0.0258919
-0.41499
-0.654224
-0.641065
-0.38106
0.0131486
0.358815
0.498557
0.372803
0.0344393
-0.363423
-0.636469
-0.666434
-0.441201
-0.0564991
0.310874
0.492209
0.409572
0.0975847
-0.303733
-0.607388
-0.679456
-0.490271
-0.119317
0.263826
0.481272
0.438129
0.152606
-0.247483
-0.574337
-0.680891
-0.522543
-0.165698
0.226701
0.470603
0.457933
0.194122
-0.202907
-0.546095
-0.679148
-0.546095
-0.202907
0.194122
0.457933
0.470603
0.226701
-0.165698
-0.522543
-0.680891
-0.574337
-0.247483
0.152606
0.438129
0.481272
0.263826
-0.119317
-0.490271
-0.679456
-0.607388
-0.303733
0.0975847
0.409572
0.492209
0.310874
-0.0564991
-0.441201
-0.666434
-0.636469
-0.363423
0.0344393
0.372803
0.498557
0.358815
0.0131486
-0.38106
-0.641065
-0.654224
-0.41499
-0.0258919
0.333552
0.499225
0.40092
0.0804034
-0.31776
-0.607806
-0.661592
-0.456709
-0.0804639
0.294311
0.495361
0.436864
0.143621
-0.253875
-0.569993
-0.662863
-0.493516
-0.133815
0.251908
0.485375
0.465958
0.201876
-0.191317
-0.530762
-0.616735
-0.488089
-0.157195
0.225121
0.481694
0.501389
0.276327
-0.0969843
-0.446465
-0.611663
-0.52146