# vtk DataFile Version 3.0
PFC simulation results
ASCII
DATASET STRUCTURED_POINTS
DIMENSIONS 128 128 1
ORIGIN 0 0 0
SPACING 1 1 1
POINT_DATA 16384
SCALARS psi double
LOOKUP_TABLE default
0.522802
0.398809
0.0842338
-0.266619
-0.47734
-0.445555
-0.187085
0.16876
0.43837
0.484777
0.28101
-0.0786554
-0.414224
-0.557583
-0.440051
-0.117733
0.247496
0.468272
0.433828
0.156358
-0.23118
-0.53428
-0.605812
-0.413215
-0.0472816
0.310088
0.480789
0.383071
0.0606883
-0.330974
-0.599378
-0.620349
-0.386016
-0.00472311
0.338234
0.478496
0.353126
0.0190025
-0.365952
-0.619008
-0.629434
-0.395633
-0.0218914
0.317594
0.468429
0.369026
0.064539
-0.308618
-0.583324
-0.648037
-0.483675
-0.159627
0.186155
0.40961
0.430602
0.251501
-0.0540716
-0.365295
-0.567344
-0.599275
-0.459797
-0.197878
0.0956967
0.319058
0.401278
0.319058
0.0956967
-0.197878
-0.459797
-0.599275
-0.567344
-0.365295
-0.0540716
0.251501
0.430602
0.40961
0.186155
-0.159627
-0.483675
-0.648037
-0.583324
-0.308618
0.064539
0.369026
0.468429
0.317594
-0.0218914
-0.395633
-0.629434
-0.619008
-0.365952
0.0190025
0.353126
0.478496
0.338234
-0.00472311
-0.386016
-0.620349
-0.599378
-0.330974
0.0606883
0.383071
0.480789
0.310088
-0.0472816
-0.413215
-0.605812
-0.53428
-0.23118
0.156358
0.433828
0.468272
0.247496
-0.117733
-0.440051
-0.557583
-0.414224
-0.0786554
0.28101
0.484777
0.43837
0.16876
-0.187085
-0.445555
-0.47734
-0.266619
0.0842338
0.398809
0.47986
0.338689
-0.0179036
-0.412169
-0.646279
-0.609461
-0.31883
0.0848597
0.396305
0.460393
0.246449
-0.141253
-0.505519
-0.664496
-0.543625
-0.198972
0.199457
0.449957
0.431547
0.154463
-0.244418
-0.563119
-0.646915
-0.457632
-0.0833028
0.291714
0.483067
0.40364
0.0928691
-0.297669
-0.575146
-0.610051
-0.387603
-0.0102844
0.339615
0.497117
0.395553
0.0837716
-0.290775
-0.549771
-0.577552
-0.363868
-0.00440212
0.33395
0.500318
0.430984
0.16137
-0.187566
-0.458749
-0.538033
-0.397512
-0.0977277
0.232773
0.45877
0.504465
0.368757
0.112078
-0.162037
-0.347644
-0.38125
-0.256954
-0.0216433
0.239124
0.434929
0.506424
0.434929
0.239124
-0.0216433
-0.256954
-0.38125
-0.347644
-0.162037
0.112078
0.368757
0.504465
0.45877
0.232773
-0.0977277
-0.397512
-0.538033
-0.458749
-0.187566
0.16137
0.430984
0.500318
0.33395
-0.00440212
-0.363868
-0.577552
-0.549771
-0.290775
0.0837716
0.395553
0.497117
0.339615
-0.0102844
-0.387603
-0.610051
-0.575146
-0.297669
0.0928691
0.40364
0.483067
0.291714
-0.0833028
-0.457632
-0.646915
-0.563119
-0.244418
0.154463
0.431547
0.449957
0.199457
-0.198972
-0.543625
-0.664496
-0.505519
-0.141253
0.246449
0.460393
0.396305
0.0848597
-0.31883
-0.609461
-0.646279
-0.412169
-0.0179036
0.338689
0.516078
0.383303
0.0469387
-0.326793
-0.549452
-0.513251
-0.234993
0.149573
0.447637
0.516964
0.329639
-0.0217491
-0.358704
-0.510419
-0.403145
-0.0884621
0.276918
0.512153
0.510785
0.279601
-0.0669663
-0.353274
-0.436299
-0.276238
0.0489927
0.377949
0.553744
0.502593
0.25323
-0.0740875
-0.317333
-0.358253
-0.178105
0.135936
0.431328
0.573755
0.508217
0.268401
-0.0344974
-0.255938
-0.292075
-0.127582
0.159452
0.434456
0.579412
0.544257
0.351496
0.0864738
-0.131481
-0.205757
-0.106881
0.118041
0.368343
0.543694
0.59148
0.512195
0.345562
0.159545
0.0288454
0.0035356
0.089838
0.250599
0.423043
0.548492
0.593416
0.548492
0.423043
0.250599
0.089838
0.0035356
0.0288454
0.159545
0.345562
0.512195
0.59148
0.543694
0.368343
0.118041
-0.106881
-0.205757
-0.131481
0.0864738
0.351496
0.544257
0.579412
0.434456
0.159452
-0.127582
-0.292075
-0.255938
-0.0344974
0.268401
0.508217
0.573755
0.431328
0.135936
-0.178105
-0.358253
-0.317333
-0.0740875
0.25323
0.502593
0.553744
0.377949
0.0489927
-0.276238
-0.436299
-0.353274
-0.0669663
0.279601
0.510785
0.512153
0.276918
-0.0884621
-0.403145
-0.510419
-0.358704
-0.0217491
0.329639
0.516964
0.447637
0.149573
-0.234993
-0.513251
-0.549452
-0.326793
0.0469387
0.383303
0.598654
0.497116
0.237832
-0.0544214
-0.230887
-0.201461
0.0191644
0.319053
0.549622
0.607334
0.473106
0.212986
-0.0425751
-0.161264
-0.0822883
0.15281
0.423165
0.598275
0.605431
0.44963
0.207489
0.00111134
-0.0630328
0.0470802
0.273055
0.500009
0.623517
0.597221
0.439256
0.224556
0.059207
0.0268849
0.142688
0.345774
0.53551
0.629371
0.595922
0.454777
0.269802
0.128989
0.101323
0.198768
0.370208
0.53257
0.619283
0.605817
0.505633
0.362786
0.241206
0.197108
0.248558
0.365507
0.489251
0.570043
0.590712
0.560133
0.497906
0.429254
0.382142
0.376609
0.412668
0.469478
0.520041
0.549501
0.558321
0.549501
0.520041
0.469478
0.412668
0.376609
0.382142
0.429254
0.497906
0.560133
0.590712
0.570043
0.489251
0.365507
0.248558
0.197108
0.241206
0.362786
0.505633
0.605817
0.619283
0.53257
0.370208
0.198768
0.101323
0.128989
0.269802
0.454777
0.595922
0.629371
0.53551
0.345774
0.142688
0.0268849
0.059207
0.224556
0.439256
0.597221
0.623517
0.500009
0.273055
0.0470802
-0.0630328
0.00111134
0.207489
0.44963
0.605431
0.598275
0.423165
0.15281
-0.0822883
-0.161264
-0.0425751
0.212986
0.473106
0.607334
0.549622
0.319053
0.0191644
-0.201461
-0.230887
-0.0544214
0.237832
0.497116
0.631675
0.575947
0.432028
0.266799
0.165651
0.183508
0.310029
0.476721
0.601107
0.631836
0.562418
0.427056
0.292497
0.229824
0.272199
0.393441
0.526661
0.608575
0.610543
0.539501
0.430541
0.338107
0.311356
0.363237
0.461282
0.551342
0.593829
0.578978
0.51923
0.442244
0.385582
0.379565
0.426144
0.495763
0.549728
0.5672
0.549834
0.509721
0.463566
0.432555
0.433718
0.465543
0.505532
0.528385
0.527197
0.513097
0.498755
0.489905
0.489296
0.498885
0.513582
0.51744
0.495808
0.454755
0.421711
0.422822
0.461874
0.520072
0.571726
0.597588
0.585905
0.53221
0.448962
0.371056
0.339088
0.371056
0.448962
0.53221
0.585905
0.597588
0.571726
0.520072
0.461874
0.422822
0.421711
0.454755
0.495808
0.51744
0.513582
0.498885
0.489296
0.489905
0.498755
0.513097
0.527197
0.528385
0.505532
0.465543
0.433718
0.432555
0.463566
0.509721
0.549834
0.5672
0.549728
0.495763
0.426144
0.379565
0.385582
0.442244
0.51923
0.578978
0.593829
0.551342
0.461282
0.363237
0.311356
0.338107
0.430541
0.539501
0.610543
0.608575
0.526661
0.393441
0.272199
0.229824
0.292497
0.427056
0.562418
0.631836
0.601107
0.476721
0.310029
0.183508
0.165651
0.266799
0.432028
0.575947
0.514612
0.511141
0.499496
0.482243
0.471147
0.476481
0.492986
0.504591
0.503347
0.496257
0.492749
0.494217
0.498523
0.505927
0.513723
0.511051
0.489681
0.459175
0.441947
0.452103
0.484239
0.521404
0.547087
0.547771
0.514364
0.453804
0.395814
0.375614
0.406877
0.472731
0.539748
0.577503
0.567175
0.50505
0.41184
0.332563
0.311323
0.360968
0.455553
0.548552
0.598603
0.582502
0.498563
0.374326
0.265475
0.227904
0.282553
0.403216
0.533088
0.615615
0.615287
0.52215
0.358902
0.187093
0.0845015
0.101123
0.230824
0.41465
0.572232
0.640784
0.592505
0.436101
0.223042
0.0399189
-0.0319444
0.0399189
0.223042
0.436101
0.592505
0.640784
0.572232
0.41465
0.230824
0.101123
0.0845015
0.187093
0.358902
0.52215
0.615287
0.615615
0.533088
0.403216
0.282553
0.227904
0.265475
0.374326
0.498563
0.582502
0.598603
0.548552
0.455553
0.360968
0.311323
0.332563
0.41184
0.50505
0.567175
0.577503
0.539748
0.472731
0.406877
0.375614
0.395814
0.453804
0.514364
0.547771
0.547087
0.521404
0.484239
0.452103
0.441947
0.459175
0.489681
0.511051
0.513723
0.505927
0.498523
0.494217
0.492749
0.496257
0.503347
0.504591
0.492986
0.476481
0.471147
0.482243
0.499496
0.511141
0.210918
0.260724
0.383539
0.51645
0.597682
0.593173
0.501658
0.357333
0.226325
0.176264
0.234976
0.372429
0.518409
0.602624
0.585198
0.46642
0.291888
0.143284
0.0972569
0.179276
0.347903
0.517889
0.607158
0.572277
0.420306
0.212751
0.047884
0.00910506
0.116822
0.317199
0.510982
0.606768
0.559707
0.38278
0.148659
-0.033191
-0.0739257
0.046212
0.268865
0.487162
0.601405
0.560915
0.375177
0.116224
-0.100843
-0.175506
-0.0740623
0.156908
0.411803
0.577987
0.585534
0.423238
0.14355
-0.141854
-0.30992
-0.289834
-0.0911995
0.20004
0.457022
0.573754
0.503865
0.266581
-0.0506167
-0.315942
-0.418061
-0.315942
-0.0506167
0.266581
0.503865
0.573754
0.457022
0.20004
-0.0911995
-0.289834
-0.30992
-0.141854
0.14355
0.423238
0.585534
0.577987
0.411803
0.156908
-0.0740623
-0.175506
-0.100843
0.116224
0.375177
0.560915
0.601405
0.487162
0.268865
0.046212
-0.0739257
-0.033191
0.148659
0.38278
0.559707
0.606768
0.510982
0.317199
0.116822
0.00910506
0.047884
0.212751
0.420306
0.572277
0.607158
0.517889
0.347903
0.179276
0.0972569
0.143284
0.291888
0.46642
0.585198
0.602624
0.518409
0.372429
0.234976
0.176264
0.226325
0.357333
0.501658
0.593173
0.597682
0.51645
0.383539
0.260724
-0.199886
-0.103461
0.138599
0.40683
0.573115
0.563193
0.378459
0.0973544
-0.147651
-0.23669
-0.126379
0.129557
0.40406
0.563532
0.532934
0.319671
0.0152654
-0.235545
-0.310798
-0.174434
0.107921
0.396912
0.552068
0.49982
0.257019
-0.0699108
-0.325117
-0.386889
-0.227012
0.0791416
0.383302
0.540542
0.478577
0.21943
-0.123465
-0.389093
-0.454866
-0.292738
0.0235693
0.34601
0.525587
0.483407
0.232828
-0.121574
-0.419978
-0.53048
-0.408591
-0.106566
0.242422
0.483105
0.514281
0.319814
-0.027909
-0.382702
-0.593097
-0.57688
-0.342361
0.014667
0.339962
0.496149
0.421697
0.142479
-0.230144
-0.537529
-0.654472
-0.537529
-0.230144
0.142479
0.421697
0.496149
0.339962
0.014667
-0.342361
-0.57688
-0.593097
-0.382702
-0.027909
0.319814
0.514281
0.483105
0.242422
-0.106566
-0.408591
-0.53048
-0.419978
-0.121574
0.232828
0.483407
0.525587
0.34601
0.0235693
-0.292738
-0.454866
-0.389093
-0.123465
0.21943
0.478577
0.540542
0.383302
0.0791416
-0.227012
-0.386889
-0.325117
-0.0699108
0.257019
0.49982
0.552068
0.396912
0.107921
-0.174434
-0.310798
-0.235545
0.0152654
0.319671
0.532934
0.563532
0.40406
0.129557
-0.126379
-0.23669
-0.147651
0.0973544
0.378459
0.563193
0.573115
0.40683
0.138599
-0.103461
-0.546263
-0.419471
-0.0969084
0.26684
0.495916
0.485271
0.23789
-0.135
-0.454363
-0.568658
-0.426433
-0.0925912
0.27196
0.489272
0.457509
0.187809
-0.19702
-0.511195
-0.606914
-0.441871
-0.0908627
0.277296
0.483451
0.431454
0.14219
-0.251081
-0.558954
-0.639283
-0.457851
-0.0954904
0.276113
0.47943
0.422502
0.129394
-0.26615
-0.57692
-0.663402
-0.490544
-0.132802
0.245919
0.470295
0.443344
0.176825
-0.212608
-0.546982
-0.680647
-0.561696
-0.23874
0.149129
0.429719
0.486789
0.300078
-0.0538565
-0.42119
-0.643422
-0.633895
-0.397841
-0.03012
0.311093
0.482114
0.418187
0.145636
-0.222927
-0.528181
-0.644487
-0.528181
-0.222927
0.145636
0.418187
0.482114
0.311093
-0.03012
-0.397841
-0.633895
-0.643422
-0.42119
-0.0538565
0.300078
0.486789
0.429719
0.149129
-0.23874
-0.561696
-0.680647
-0.546982
-0.212608
0.176825
0.443344
0.470295
0.245919
-0.132802
-0.490544
-0.663402
-0.57692
-0.26615
0.129394
0.422502
0.47943
0.276113
-0.0954904
-0.457851
-0.639283
-0.558954
-0.251081
0.14219
0.431454
0.483451
0.277296
-0.0908627
-0.441871
-0.606914
-0.511195
-0.19702
0.187809
0.457509
0.489272
0.27196
-0.0925912
-0.426433
-0.568658
-0.454363
-0.135
0.23789
0.485271
0.495916
0.26684
-0.0969084
-0.419471
-0.673208
-0.536365
-0.186282
0.211588
0.464687
0.456852
0.191531
-0.209048
-0.55086
-0.673048
-0.521853
-0.164244
0.23005
0.470097
0.44608
0.169423
-0.23061
-0.559356
-0.662622
-0.495173
-0.131505
0.255484
0.479796
0.440801
0.157795
-0.236452
-0.551054
-0.640133
-0.46528
-0.10397
0.273676
0.489757
0.450828
0.176975
-0.205544
-0.515186
-0.611273
-0.453564
-0.11056
0.26064
0.490749
0.48511
0.251118
-0.107303
-0.425965
-0.56336
-0.463555
-0.168771
0.192211
0.460917
0.531281
0.383969
0.0832909
-0.238868
-0.440169
-0.437005
-0.23189
0.0886479
0.385897
0.538639
0.49388
0.272905
-0.0334537
-0.292304
-0.392273
-0.292304
-0.0334537
0.272905
0.49388
0.538639
0.385897
0.0886479
-0.23189
-0.437005
-0.440169
-0.238868
0.0832909
0.383969
0.531281
0.460917
0.192211
-0.168771
-0.463555
-0.56336
-0.425965
-0.107303
0.251118
0.48511
0.490749
0.26064
-0.11056
-0.453564
-0.611273
-0.515186
-0.205544
0.176975
0.450828
0.489757
0.273676
-0.10397
-0.46528
-0.640133
-0.551054
-0.236452
0.157795
0.440801
0.479796
0.255484
-0.131505
-0.495173
-0.662622
-0.559356
-0.23061
0.169423
0.44608
0.470097
0.23005
-0.164244
-0.521853
-0.673048
-0.55086
-0.209048
0.191531
0.456852
0.464687
0.211588
-0.186282
-0.536365
-0.526729
-0.400166
-0.0784373
0.28449
0.515181
0.511367
0.276106
-0.0836049
-0.394249
-0.506654
-0.369063
-0.0447572
0.310853
0.529278
0.516154
0.280816
-0.0677113
-0.360233
-0.4558
-0.310201
0.00864447
0.347486
0.547843
0.526068
0.296583
-0.0341902
-0.306541
-0.389918
-0.246019
0.0575056
0.375618
0.562768
0.544162
0.333438
0.0262608
-0.232354
-0.320573
-0.19876
0.0759516
0.374647
0.564733
0.574308
0.407378
0.137688
-0.112252
-0.227657
-0.157885
0.0637281
0.335284
0.539068
0.600821
0.508234
0.304258
0.077911
-0.0683628
-0.0690234
0.0744941
0.295886
0.497664
0.601853
0.577343
0.437987
0.239316
0.0669703
-0.000815764
0.0669703
0.239316
0.437987
0.577343
0.601853
0.497664
0.295886
0.0744941
-0.0690234
-0.0683628
0.077911
0.304258
0.508234
0.600821
0.539068
0.335284
0.0637281
-0.157885
-0.227657
-0.112252
0.137688
0.407378
0.574308
0.564733
0.374647
0.0759516
-0.19876
-0.320573
-0.232354
0.0262608
0.333438
0.544162
0.562768
0.375618
0.0575056
-0.246019
-0.389918
-0.306541
-0.0341902
0.296583
0.526068
0.547843
0.347486
0.00864447
-0.310201
-0.4558
-0.360233
-0.0677113
0.280816
0.516154
0.529278
0.310853
-0.0447572
-0.369063
-0.506654
-0.394249
-0.0836049
0.276106
0.511367
0.515181
0.28449
-0.0784373
-0.400166
-0.171605
-0.0759491
0.163804
0.429466
0.596724
0.5958
0.429137
0.169866
-0.0585087
-0.142561
-0.0407453
0.196177
0.451505
0.607716
0.602778
0.443553
0.20196
-0.00582922
-0.0760814
0.0257529
0.247765
0.4802
0.617925
0.609041
0.463235
0.24664
0.0629178
0.0033947
0.0968345
0.294684
0.499202
0.619985
0.614184
0.490577
0.304079
0.141735
0.0827509
0.154859
0.319558
0.495506
0.606835
0.617167
0.530759
0.385737
0.246925
0.180014
0.215779
0.33263
0.470871
0.570491
0.601173
0.562799
0.475291
0.375914
0.310612
0.310825
0.373574
0.463837
0.539201
0.574947
0.567074
0.521821
0.454242
0.39222
0.366914
0.39222
0.454242
0.521821
0.567074
0.574947
0.539201
0.463837
0.373574
0.310825
0.310612
0.375914
0.475291
0.562799
0.601173
0.570491
0.470871
0.33263
0.215779
0.180014
0.246925
0.385737
0.530759
0.617167
0.606835
0.495506
0.319558
0.154859
0.0827509
0.141735
0.304079
0.490577
0.614184
0.619985
0.499202
0.294684
0.0968345
0.0033947
0.0629178
0.24664
0.463235
0.609041
0.617925
0.4802
0.247765
0.0257529
-0.0760814
-0.00582922
0.20196
0.443553
0.602778
0.607716
0.451505
0.196177
-0.0407453
-0.142561
-0.0585087
0.169866
0.429137
0.5958
0.596724
0.429466
0.163804
-0.0759491
0.231684
0.280206
0.399112
0.526504
0.604296
0.603864
0.527308
0.405866
0.296362
0.255998
0.306329
0.41856
0.53371
0.600641
0.597787
0.530676
0.428062
0.338448
0.308875
0.354512
0.447596
0.537897
0.586517
0.581108
0.529183
0.452999
0.388177
0.368975
0.404781
0.471896
0.532162
0.560818
0.554929
0.52259
0.476834
0.437832
0.426549
0.448342
0.485776
0.513531
0.520857
0.515031
0.506017
0.497141
0.490419
0.490739
0.498461
0.502503
0.490006
0.464483
0.446731
0.454503
0.485879
0.523814
0.551637
0.559348
0.539556
0.490435
0.427982
0.385365
0.390113
0.441411
0.511075
0.565667
0.585568
0.565667
0.511075
0.441411
0.390113
0.385365
0.427982
0.490435
0.539556
0.559348
0.551637
0.523814
0.485879
0.454503
0.446731
0.464483
0.490006
0.502503
0.498461
0.490739
0.490419
0.497141
0.506017
0.515031
0.520857
0.513531
0.485776
0.448342
0.426549
0.437832
0.476834
0.52259
0.554929
0.560818
0.532162
0.471896
0.404781
0.368975
0.388177
0.452999
0.529183
0.581108
0.586517
0.537897
0.447596
0.354512
0.308875
0.338448
0.428062
0.530676
0.597787
0.600641
0.53371
0.41856
0.306329
0.255998
0.296362
0.405866
0.527308
0.603864
0.604296
0.526504
0.399112
0.280206
0.517269
0.512312
0.495381
0.468237
0.44505
0.442763
0.46374
0.49392
0.517788
0.528804
0.524032
0.499305
0.458815
0.423039
0.415943
0.44372
0.490194
0.531873
0.552475
0.543023
0.500119
0.435506
0.380707
0.368807
0.4088
0.47921
0.544925
0.577677
0.562369
0.497652
0.404365
0.326532
0.30761
0.360109
0.457115
0.550946
0.600254
0.582903
0.497959
0.373016
0.264078
0.228093
0.286361
0.410649
0.540888
0.61913
0.611607
0.513011
0.352836
0.19754
0.122576
0.167586
0.31195
0.48609
0.610738
0.633544
0.540411
0.35922
0.162581
0.0418456
0.0565601
0.200155
0.4029
0.570826
0.634567
0.570826
0.4029
0.200155
0.0565601
0.0418456
0.162581
0.35922
0.540411
0.633544
0.610738
0.48609
0.31195
0.167586
0.122576
0.19754
0.352836
0.513011
0.611607
0.61913
0.540888
0.410649
0.286361
0.228093
0.264078
0.373016
0.497959
0.582903
0.600254
0.550946
0.457115
0.360109
0.30761
0.326532
0.404365
0.497652
0.562369
0.577677
0.544925
0.47921
0.4088
0.368807
0.380707
0.435506
0.500119
0.543023
0.552475
0.531873
0.490194
0.44372
0.415943
0.423039
0.458815
0.499305
0.524032
0.528804
0.517788
0.49392
0.46374
0.442763
0.44505
0.468237
0.495381
0.512312
0.618742
0.561912
0.412435
0.233173
0.109494
0.103992
0.219855
0.398749
0.554345
0.618379
0.563922
0.408584
0.216077
0.0771813
0.0618051
0.178506
0.369162
0.541081
0.616498
0.561685
0.393143
0.179571
0.0209415
-0.0040493
0.117792
0.326711
0.52145
0.613018
0.56022
0.378267
0.140796
-0.0423859
-0.0822757
0.0410453
0.268487
0.491292
0.608082
0.567418
0.378885
0.116124
-0.102671
-0.174103
-0.0641982
0.176143
0.434199
0.593048
0.58422
0.404037
0.118311
-0.149581
-0.276659
-0.204951
0.0332018
0.327488
0.542957
0.586677
0.436661
0.146917
-0.159295
-0.342502
-0.320278
-0.102595
0.211143
0.476257
0.578031
0.476257
0.211143
-0.102595
-0.320278
-0.342502
-0.159295
0.146917
0.436661
0.586677
0.542957
0.327488
0.0332018
-0.204951
-0.276659
-0.149581
0.118311
0.404037
0.58422
0.593048
0.434199
0.176143
-0.0641982
-0.174103
-0.102671
0.116124
0.378885
0.567418
0.608082
0.491292
0.268487
0.0410453
-0.0822757
-0.0423859
0.140796
0.378267
0.56022
0.613018
0.52145
0.326711
0.117792
-0.0040493
0.0209415
0.179571
0.393143
0.561685
0.616498
0.541081
0.369162
0.178506
0.0618051
0.0771813
0.216077
0.408584
0.563922
0.618379
0.554345
0.398749
0.219855
0.103992
0.109494
0.233173
0.412435
0.561912
0.584538
0.483623
0.221846
-0.0846511
-0.290843
-0.299468
-0.106519
0.196926
0.466011
0.578424
0.485645
0.223203
-0.0940666
-0.316927
-0.340857
-0.154867
0.153941
0.437723
0.565225
0.479676
0.212793
-0.119125
-0.360557
-0.399406
-0.218293
0.0993532
0.40248
0.550225
0.476668
0.20838
-0.138536
-0.402745
-0.463276
-0.293815
0.0296751
0.356123
0.534805
0.487144
0.228596
-0.131813
-0.429329
-0.529868
-0.390883
-0.0724205
0.280778
0.506897
0.507621
0.278605
-0.0874545
-0.426761
-0.587339
-0.50202
-0.206671
0.167705
0.448965
0.51331
0.332028
-0.0220683
-0.391391
-0.608759
-0.582146
-0.322611
0.0573776
0.383197
0.509253
0.383197
0.0573776
-0.322611
-0.582146
-0.608759
-0.391391
-0.0220683
0.332028
0.51331
0.448965
0.167705
-0.206671
-0.50202
-0.587339
-0.426761
-0.0874545
0.278605
0.507621
0.506897
0.280778
-0.0724205
-0.390883
-0.529868
-0.429329
-0.131813
0.228596
0.487144
0.534805
0.356123
0.0296751
-0.293815
-0.463276
-0.402745
-0.138536
0.20838
0.476668
0.550225
0.40248
0.0993532
-0.218293
-0.399406
-0.360557
-0.119125
0.212793
0.479676
0.565225
0.437723
0.153941
-0.154867
-0.340857
-0.316927
-0.0940666
0.223203
0.485645
0.578424
0.466011
0.196926
-0.106519
-0.299468
-0.290843
-0.0846511
0.221846
0.483623
0.519227
0.390455
0.058831
-0.324072
-0.577704
-0.588233
-0.351225
0.0272164
0.368195
0.513783
0.400457
0.075391
-0.313747
-0.583647
-0.613294
-0.390233
-0.0134042
0.339396
0.503235
0.40566
0.0870776
-0.308022
-0.59366
-0.642235
-0.433613
-0.0588688
0.306821
0.492421
0.416058
0.109354
-0.289496
-0.593628
-0.66795
-0.482108
-0.115234
0.264519
0.481112
0.440287
0.158788
-0.239136
-0.569208
-0.685348
-0.540657
-0.194864
0.197973
0.457705
0.47225
0.235957
-0.149563
-0.507917
-0.678847
-0.592406
-0.283658
0.112956
0.415713
0.491964
0.311082
-0.049885
-0.426827
-0.648101
-0.620494
-0.35512
0.0341574
0.368662
0.498234
0.368662
0.0341574
-0.35512
-0.620494
-0.648101
-0.426827
-0.049885
0.311082
0.491964
0.415713
0.112956
-0.283658
-0.592406
-0.678847
-0.507917
-0.149563
0.235957
0.47225
0.457705
0.197973
-0.194864
-0.540657
-0.685348
-0.569208
-0.239136
0.158788
0.440287
0.481112
0.264519
-0.115234
-0.482108
-0.66795
-0.593628
-0.289496
0.109354
0.416058
0.492421
0.306821
-0.0588688
-0.433613
-0.642235
-0.59366
-0.308022
0.0870776
0.40566
0.503235
0.339396
-0.0134042
-0.390233
-0.613294
-0.583647
-0.313747
0.075391
0.400457
0.513783
0.368195
0.0272164
-0.351225
-0.588233
-0.577704
-0.324072
0.058831
0.390455
0.509762
0.376777
0.0346134
-0.359729
-0.620403
-0.63131
-0.387852
0.00211194
0.355074
0.508221
0.396121
0.0670757
-0.328184
-0.602993
-0.634339
-0.408994
-0.0261526
0.334649
0.5065
0.416136
0.103283
-0.288999
-0.575403
-0.627277
-0.422799
-0.0512621
0.314431
0.505613
0.441513
0.151325
-0.2334
-0.531884
-0.609912
-0.434803
-0.0820784
0.286519
0.502608
0.476276
0.22159
-0.148164
-0.461315
-0.576734
-0.446031
-0.124882
0.242183
0.488982
0.513504
0.310077
-0.0323149
-0.356539
-0.514374
-0.437832
-0.159599
0.196165
0.467897
0.541095
0.390021
0.0797644
-0.249369
-0.444989
-0.420128
-0.18543
0.154149
0.442486
0.553478
0.442486
0.154149
-0.18543
-0.420128
-0.444989
-0.249369
0.0797644
0.390021
0.541095
0.467897
0.196165
-0.159599
-0.437832
-0.514374
-0.356539
-0.0323149
0.310077
0.513504
0.488982
0.242183
-0.124882
-0.446031
-0.576734
-0.461315
-0.148164
0.22159
0.476276
0.502608
0.286519
-0.0820784
-0.434803
-0.609912
-0.531884
-0.2334
0.151325
0.441513
0.505613
0.314431
-0.0512621
-0.422799
-0.627277
-0.575403
-0.288999
0.103283
0.416136
0.5065
0.334649
-0.0261526
-0.408994
-0.634339
-0.602993
-0.328184
0.0670757
0.396121
0.508221
0.355074
0.00211194
-0.387852
-0.63131
-0.620403
-0.359729
0.0346134
0.376777
0.569138
0.456712
0.165695
-0.173568
-0.400719
-0.410403
-0.19825
0.137727
0.438963
0.57052
0.479507
0.204808
-0.130403
-0.367436
-0.395714
-0.202489
0.122981
0.427264
0.574137
0.505475
0.252196
-0.0723588
-0.314824
-0.361609
-0.191651
0.11635
0.417516
0.577464
0.533803
0.308126
0.000430011
-0.24519
-0.313685
-0.174274
0.108291
0.401749
0.575947
0.563989
0.375742
0.0933255
-0.153117
-0.248307
-0.149251
0.0976016
0.377049
0.565226
0.590002
0.447956
0.200726
-0.0394531
-0.159375
-0.103293
0.101901
0.35964
0.55407
0.608458
0.506971
0.292754
0.0605619
-0.0800536
-0.0619111
0.106173
0.344007
0.541918
0.61727
0.541918
0.344007
0.106173
-0.0619111
-0.0800536
0.0605619
0.292754
0.506971
0.608458
0.55407
0.35964
0.101901
-0.103293
-0.159375
-0.0394531
0.200726
0.447956
0.590002
0.565226
0.377049
0.0976016
-0.149251
-0.248307
-0.153117
0.0933255
0.375742
0.563989
0.575947
0.401749
0.108291
-0.174274
-0.313685
-0.24519
0.000430011
0.308126
0.533803
0.577464
0.417516
0.11635
-0.191651
-0.361609
-0.314824
-0.0723588
0.252196
0.505475
0.574137
0.427264
0.122981
-0.202489
-0.395714
-0.367436
-0.130403
0.204808
0.479507
0.57052
0.438963
0.137727
-0.19825
-0.410403
-0.400719
-0.173568
0.165695
0.456712
0.627632
0.554572
0.363456
0.136359
-0.0188038
-0.0255077
0.119462
0.344459
0.542347
0.628436
0.571345
0.394743
0.174761
0.0157161
-0.00393267
0.125156
0.338599
0.534278
0.628593
0.588322
0.431993
0.226931
0.0697765
0.0379693
0.146574
0.340552
0.526424
0.624871
0.60213
0.470926
0.287217
0.13633
0.092189
0.17567
0.343356
0.513527
0.613521
0.609989
0.509419
0.354206
0.214842
0.159147
0.213772
0.348884
0.497075
0.594186
0.608216
0.54014
0.418768
0.297883
0.236452
0.265102
0.366995
0.489375
0.577481
0.601415
0.557791
0.464161
0.359724
0.295042
0.303932
0.380854
0.484958
0.567655
0.598198
0.567655
0.484958
0.380854
0.303932
0.295042
0.359724
0.464161
0.557791
0.601415
0.577481
0.489375
0.366995
0.265102
0.236452
0.297883
0.418768
0.54014
0.608216
0.594186
0.497075
0.348884
0.213772
0.159147
0.214842
0.354206
0.509419
0.609989
0.613521
0.513527
0.343356
0.17567
0.092189
0.13633
0.287217
0.470926
0.60213
0.624871
0.526424
0.340552
0.146574
0.0379693
0.0697765
0.226931
0.431993
0.588322
0.628593
0.534278
0.338599
0.125156
-0.00393267
0.0157161
0.174761
0.394743
0.571345
0.628436
0.542347
0.344459
0.119462
-0.0255077
-0.0188038
0.136359
0.363456
0.554572
0.577479
0.553796
0.489307
0.40818
0.350165
0.34797
0.402647
0.482679
0.54807
0.574548
0.556468
0.500243
0.426828
0.371605
0.365471
0.411297
0.481301
0.539227
0.564003
0.552262
0.509622
0.451354
0.404907
0.396478
0.430073
0.483307
0.526645
0.544997
0.538813
0.512942
0.475414
0.443013
0.434723
0.454752
0.486848
0.509917
0.516889
0.513915
0.50622
0.494192
0.481794
0.478137
0.486023
0.495087
0.493273
0.482758
0.477313
0.484802
0.499462
0.51193
0.519201
0.520347
0.50953
0.483225
0.452795
0.4398
0.455591
0.490316
0.523803
0.542548
0.54226
0.520874
0.481192
0.439947
0.422109
0.439947
0.481192
0.520874
0.54226
0.542548
0.523803
0.490316
0.455591
0.4398
0.452795
0.483225
0.50953
0.520347
0.519201
0.51193
0.499462
0.484802
0.477313
0.482758
0.493273
0.495087
0.486023
0.478137
0.481794
0.494192
0.50622
0.513915
0.516889
0.509917
0.486848
0.454752
0.434723
0.443013
0.475414
0.512942
0.538813
0.544997
0.526645
0.483307
0.430073
0.396478
0.404907
0.451354
0.509622
0.552262
0.564003
0.539227
0.481301
0.411297
0.365471
0.371605
0.426828
0.500243
0.556468
0.574548
0.54807
0.482679
0.402647
0.34797
0.350165
0.40818
0.489307
0.553796
0.344428
0.373531
0.443931
0.518181
0.564212
0.567538
0.526598
0.452682
0.376217
0.337199
0.358554
0.4286
0.510129
0.566276
0.576906
0.537062
0.456836
0.368028
0.31566
0.329771
0.403546
0.498372
0.570021
0.590376
0.550266
0.459468
0.353021
0.283001
0.288073
0.366928
0.479118
0.571437
0.605676
0.566986
0.46428
0.336079
0.242824
0.234016
0.316021
0.447623
0.565788
0.619905
0.587263
0.474455
0.322577
0.200745
0.171232
0.250868
0.400015
0.546256
0.62491
0.603437
0.485172
0.313264
0.164639
0.113436
0.186727
0.347759
0.517271
0.618738
0.611153
0.495308
0.315409
0.152374
0.0868758
0.152374
0.315409
0.495308
0.611153
0.618738
0.517271
0.347759
0.186727
0.113436
0.164639
0.313264
0.485172
0.603437
0.62491
0.546256
0.400015
0.250868
0.171232
0.200745
0.322577
0.474455
0.587263
0.619905
0.565788
0.447623
0.316021
0.234016
0.242824
0.336079
0.46428
0.566986
0.605676
0.571437
0.479118
0.366928
0.288073
0.283001
0.353021
0.459468
0.550266
0.590376
0.570021
0.498372
0.403546
0.329771
0.31566
0.368028
0.456836
0.537062
0.576906
0.566276
0.510129
0.4286
0.358554
0.337199
0.376217
0.452682
0.526598
0.567538
0.564212
0.518181
0.443931
0.373531
-0.0428588
0.0357283
0.233062
0.453812
0.597992
0.607387
0.47781
0.259628
0.0495952
-0.0516315
0.00542716
0.193154
0.420648
0.582902
0.611996
0.495038
0.275914
0.0498982
-0.075844
-0.0403154
0.13969
0.377432
0.561812
0.613496
0.50992
0.288652
0.0441328
-0.109029
-0.0973245
0.0741435
0.323658
0.534024
0.613056
0.526796
0.305116
0.0406034
-0.144338
-0.161872
-0.00322519
0.256979
0.496254
0.608109
0.544987
0.327233
0.0438454
-0.175569
-0.227545
-0.0874264
0.17939
0.446596
0.592834
0.555731
0.346053
0.0491594
-0.199463
-0.282592
-0.161355
0.107818
0.396955
0.572839
0.560631
0.363463
0.0632142
-0.202111
-0.306789
-0.202111
0.0632142
0.363463
0.560631
0.572839
0.396955
0.107818
-0.161355
-0.282592
-0.199463
0.0491594
0.346053
0.555731
0.592834
0.446596
0.17939
-0.0874264
-0.227545
-0.175569
0.0438454
0.327233
0.544987
0.608109
0.496254
0.256979
-0.00322519
-0.161872
-0.144338
0.0406034
0.305116
0.526796
0.613056
0.534024
0.323658
0.0741435
-0.0973245
-0.109029
0.0441328
0.288652
0.50992
0.613496
0.561812
0.377432
0.13969
-0.0403154
-0.075844
0.0498982
0.275914
0.495038
0.611996
0.582902
0.420648
0.193154
0.00542716
-0.0516315
0.0495952
0.259628
0.47781
0.607387
0.597992
0.453812
0.233062
0.0357283
-0.437705
-0.322735
-0.0293784
0.305896
0.528513
0.543598
0.344606
0.0144106
-0.296568
-0.443708
-0.361064
-0.0854948
0.255446
0.503045
0.549299
0.374168
0.0491732
-0.279289
-0.4588
-0.409193
-0.152374
0.194185
0.468492
0.548608
0.399941
0.0821493
-0.263123
-0.476002
-0.461711
-0.226522
0.123889
0.426129
0.544061
0.426928
0.120682
-0.239884
-0.48812
-0.513411
-0.304976
0.0453234
0.375021
0.533887
0.453406
0.164199
-0.207933
-0.490945
-0.557765
-0.379841
-0.034535
0.318419
0.515789
0.471413
0.201556
-0.176552
-0.487178
-0.589137
-0.438616
-0.100607
0.268782
0.496781
0.482964
0.232187
-0.145671
-0.473819
-0.601537
-0.473819
-0.145671
0.232187
0.482964
0.496781
0.268782
-0.100607
-0.438616
-0.589137
-0.487178
-0.176552
0.201556
0.471413
0.515789
0.318419
-0.034535
-0.379841
-0.557765
-0.490945
-0.207933
0.164199
0.453406
0.533887
0.375021
0.0453234
-0.304976
-0.513411
-0.48812
-0.239884
0.120682
0.426928
0.544061
0.426129
0.123889
-0.226522
-0.461711
-0.476002
-0.263123
0.0821493
0.399941
0.548608
0.468492
0.194185
-0.152374
-0.409193
-0.4588
-0.279289
0.0491732
0.374168
0.549299
0.503045
0.255446
-0.0854948
-0.361064
-0.443708
-0.296568
0.0144106
0.344606
0.543598
0.528513
0.305896
-0.0293784
-0.322735
-0.66207
-0.530261
-0.190612
0.202591
0.466323
0.485096
0.250961
-0.135032
-0.49432
-0.662667
-0.56859
-0.251618
0.145855
0.438173
0.495311
0.29305
-0.0822622
-0.458132
-0.662005
-0.607089
-0.316276
0.0819393
0.401794
0.499081
0.332462
-0.0274779
-0.416448
-0.655142
-0.641414
-0.381041
0.0132693
0.358803
0.49826
0.372179
0.0335909
-0.364288
-0.637204
-0.667054
-0.441777
-0.0570249
0.310458
0.491914
0.409342
0.0973604
-0.303968
-0.607628
-0.679715
-0.490564
-0.119626
0.263549
0.481048
0.437944
0.152448
-0.247602
-0.574396
-0.680883
-0.522494
-0.16567
0.226644
0.470455
0.457748
0.193969
-0.202993
-0.546132
-0.679169
-0.546132
-0.202993
0.193969
0.457748
0.470455
0.226644
-0.16567
-0.522494
-0.680883
-0.574396
-0.247602
0.152448
0.437944
0.481048
0.263549
-0.119626
-0.490564
-0.679715
-0.607628
-0.303968
0.0973604
0.409342
0.491914
0.310458
-0.0570249
-0.441777
-0.667054
-0.637204
-0.364288
0.0335909
0.372179
0.49826
0.358803
0.0132693
-0.381041
-0.641414
-0.655142
-0.416448
-0.0274779
0.332462
0.499081
0.401794
0.0819393
-0.316276
-0.607089
-0.662005
-0.458132
-0.0822622
0.29305
0.495311
0.438173
0.145855
-0.251618
-0.56859
-0.662667
-0.49432
-0.135032
0.250961
0.485096
0.466323
0.202591
-0.190612
-0.530261
-0.616468
-0.487736
-0.156704
0.225557
0.48173
0.500728