# vtk DataFile Version 3.0
PFC simulation results
ASCII
DATASET STRUCTURED_POINTS
DIMENSIONS 128 128 1
ORIGIN 0 0 0
SPACING 1 1 1
POINT_DATA 16384
SCALARS psi double
LOOKUP_TABLE default
-6957.95
17797.6
854.837
-4668
-4477.81
-274.82
-7145.52
-6236.47
-7249.17
-7850.41
12768.6
1177.89
11363.8
4160.7
1341.79
5930.43
5647.81
11068.4
9546.46
-8002.38
-8205.16
-1479.08
-750.73
1887.79
929.014
-509.547
-7098.81
6100.34
3700.57
-15099.3
-8957.3
2441.17
-2550.96
1695.48
-6750.69
-10188.3
1838.14
1218.32
4854.36
7706.92
10596.1
14993.2
-15209.2
2905.5
-7573.23
-8003.31
2970.38
605.966
13866.5
9153.38
-16586.7
-2063.42
4244.12
11575.5
-2043.47
-2570.73
-6849.89
6181.56
8014.37
-7565.96
-6422.16
10111.1
-6121.26
-2497.6
-3992.02
11114.6
6731.11
-3378.63
-7937.55
-7679.14
-15346.4
3917.25
9900.36
15397.6
6915.59
1342.98
-6852.97
-5683.87
-6219.22
-7605.47
-9053.87
3397.02
1017.75
4248.41
948.753
-14022.5
-7212.88
7907.19
6578.2
1427.33
2.01754
14644.5
-2769.62
-12561.4
-5025.2
10022.8
17100.1
4700.65
5636.2
5379.6
-3088.54
-9726.56
-3907.91
-9713.01
3892.69
-936.711
-666.355
-4545.57
-1747.72
3879.46
-16287.4
74.9739
5835.66
257.14
15239.9
-4755.52
-1325.37
3059.67
6112.81
-6938.65
-332.929
2601.6
5334.38
5734.91
-1680.58
3588.49
9686.73
-34223
7616.41
-2316.91
636.88
-2594.58
-8749.02
9340.89
-7046.77
2925.97
3162.97
-4682.29
-9514.1
125.83
11236.6
-2300.35
2409.07
974.279
-2839.05
-7055.54
-2955.17
-1922.79
1493.91
4234.01
2255.72
2714.89
9236.59
9520.67
178.057
20519.7
-6625.15
-7432.98
7800.19
353.387
3356.19
1500.21
1512.94
6281.28
1314.91
7539.61
2782.6
13961.6
-9430.5
1730.99
8816.62
-2600.36
-4114.1
-7760.32
6053.31
1513.78
-9193.07
5514.56
-12773
4837.28
1672.45
-3575.42
11923.8
-1555.81
4234.85
-5928.34
-18507.4
8404.62
-8216.52
8334.06
-9588.91
-13031.1
1226.52
-3012.75
5950.67
3113.92
-3585.04
-16419.8
-13383.3
-10078
2489.82
-891.748
-8984.95
13303.2
-3268.62
-5266.2
8362.88
-1685.74
1753.4
916.841
7102.48
12957.5
-148.689
-8050.34
12352.8
-1885.44
-10800.5
-8331.89
-582.139
-425.153
-2315.23
5349
1342.77
-1283.79
7288.24
-3900.53
-1110.57
-1411.1
-1075.59
-16095.2
4646.7
-7198.28
-2700.81
84.7409
1911.17
6067.81
3656.63
-1644.8
-4558.26
-8870.54
2433.79
633.264
7192.79
2402.7
8322.32
2281.81
-982.417
11924.9
827.687
-6854.52
4102.94
-8006.73
-5720.4
-7639.43
15370.1
917.803
-12789.7
-5892.89
-307.306
-6277.84
-8080.35
-1073.1
-837.989
-7457.11
7279.81
4158.86
-1766.4
-3394.39
-8763.6
-13695.5
3372.78
7907.78
10420.1
3411.56
-1749.78
-1063.01
-600.737
2156.92
10282.7
6718.13
4555.77
-588.026
-3174.36
10110.6
-5050.64
7541.9
1764.94
-18155
11428.1
3212.22
-5624.31
-5539.38
-1392.95
-16518.3
1628.41
3552.22
6954.22
-10462.9
-6768.32
4418.05
-11410.5
7569.27
6184.02
-8935.17
-5497.53
3605.51
2078.24
13670.6
12249.3
-8747.57
2785.62
-4224.68
253.826
4329.84
7753.91
2177.1
4303.26
-2573.3
-10762.4
9373.69
-1832.88
-4729.97
8235.88
-14604.1
-10248.8
-5421.63
10878.8
2438.87
1614.21
13902.4
-6426.8
-4685.07
4846.2
8062.8
-6870.23
3952.28
2520.41
4184.58
-5198.76
-11050.3
-6431.85
-6180.89
-2646.32
-4926.24
7935.95
-12857.6
4515.68
10434.4
322.073
-2159.4
8004.43
12471.6
-6705.32
13495
-5664.02
874.379
1455.6
-2003.25
-3605.6
-2.34207
-5657.74
1451.41
8695.24
-3363.54
7894.5
-1893.47
-4540.02
61.3326
1455.2
10352.6
6485.65
-11457.9
6.65564
-976.575
-15624.8
14490
6091.99
1338.94
7790.5
-6130.44
-5263.36
-1580.52
3987.39
5488.91
-14395.4
-7159.06
-7989.34
-528.751
19875.7
8294.35
-7987
-8376.06
-4094.38
-5444.11
-247.637
-6273.25
7552.41
12311.2
1369.47
-2872.32
10523.6
-2186.49
-3807.4
-13369.7
-5760.69
1843.52
141.941
-8653.53
-2887.42
-4990.88
2537.88
-2229.66
17966.4
19149.7
-6409.28
2088.87
-2991.39
-21291.2
-7472.19
-62.4513
521.75
4504.98
-2563.74
-6187.48
9526.08
-8277.22
7465.95
3226.04
1521.78
-4504.66
2115.44
-3933.93
-20737.2
-15613.5
3949.34
11939.8
-5248.61
2497.59
20494.5
8672.09
2519
-8478.22
-11664.2
4197.9
-8871.61
3835.3
-3100.58
-3992.54
6963.62
-5475.47
5840.33
-8935.18
-8316.31
-3226.66
-3361.02
-6418.03
-8365.35
8396.41
-8650.51
12972.2
17577.6
-9476.94
-6597.05
558.842
-6705.58
6895.55
-12.6445
-3182.25
7916.09
10797.7
-7096.93
15479.7
-45.6026
2906.68
-2628.87
6030.04
16707.3
-10413.8
1179.09
4105.83
16680.3
7657.96
-13068.7
4572.59
-8571.76
-407.284
9382.49
19022.5
-2166.25
307.893
3095.09
12463.7
15303.3
-4823.38
-11306.7
8240.69
6838.81
-525.596
-13858.4
-3047.07
1872.89
-508.748
-2224.48
-8342.49
1584.5
-9962.99
5941.46
2594.92
-3358.01
237.51
-3506.47
1094.2
-4799.32
401.586
-12127.6
-7410.05
-1141.38
9435.22
-445.289
2905.84
-411.668
10947.7
-3455.64
-6641.88
-2398.64
-8173.57
14285
-10585.9
-8785.7
5242.3
675.865
-653.115
12681.5
-956.115
3928.47
-7220.46
-4114.58
-2238.54
3993.45
5166.57
11140.8
3335.77
2740.5
-9966.59
8442.77
668.756
123.526
-3267.77
-1068.54
-402.748
308.637
12866.5
3125.95
-8370.17
6349.83
-2979.18
3796.69
293.444
-1964.21
-14799.3
7684.31
-10528.2
1181.67
-1665.46
-13774
1273.76
2130.73
4195.28
2991.56
-3491.96
9234.02
3304.63
2729.97
-784.444
1501.68
-1925.09
1525.8
-7857.87
-11807.5
6778.07
-2033.69
6103.2
-3382.15
-11185.1
-6304.62
2050
-6510.61
-491.033
2238.07
-16840.9
6466.97
-2630.69
2514.78
7932.68
-3839.47
6490.59
-942.965
14053.9
-5671.76
4921.98
6604.55
14810.9
-6363.41
2430.26
3522.94
3721.06
9652.62
461.243
-10655.5
5615
3211.91
214.119
3041.77
-6477.97
-5433.21
5069.32
-12556.3
6876.14
374.368
1067.08
400.238
4068.41
1230.74
-7351.57
14351.2
5998.09
-11139.5
13552.5
-7852.88
3468.31
-11201.6
9279.19
-10049.3
-7068.28
7003.48
-2083.34
10764.8
-14883.3
2783.98
-10449.9
-2375.06
8556.07
-3566.78
-5939.34
-7266.71
6768.34
-2335.28
462.802
14497.2
3656.39
3638.69
-15377.4
-2770.97
-1909.63
8774.2
-2075.61
12522.5
7430.48
-1666.63
9767.85
-2473.93
4321.56
11198.9
-6195.96
-3663.11
2967.67
2398.84
7210.39
8158.74
14363.9
2474.1
-6944.7
3121.39
2852.51
12360.6
9372.05
-12656
548.987
10866.5
4995.29
-6548.59
-10680.2
15072.4
14024.6
-6613.65
1048.11
-12195
-3514.5
4704.02
2027.63
5275.35
15904.6
-3588.78
-17679.7
-7197.49
5704.84
-18922
-6674.4
-356.973
4974.74
-5732.08
1918.25
6385.93
-4338.59
-18927.9
768.708
10393.8
-4272.31
-17894.5
-1422.89
513.537
-4411.48
-3259.45
10116.6
-5497.9
108.309
13295.3
6249.48
-12753.9
-2261.09
-20686
2432.75
16060.5
-3797.41
-6893
3258.92
-3928.6
5762.87
4901.01
-1517.19
-1356.31
5837.85
-9067.52
-12661.2
-9083.08
-2728.79
-5315.12
-3394.25
18783.6
4429.13
8438.26
1024.19
-5964.29
16868.3
-8754.83
-1473.64
3995.28
-4100.1
5517.91
1763.3
-4621.41
3266.53
2319.02
1926.15
12329.9
-10245.2
-15431.8
-9752.46
8747.41
8639.44
-804.382
-11841.4
-2449.94
5492.25
224.016
-19009.1
449.586
-5814.08
-1660.92
9171.13
-6821.42
213.019
8178.08
7100.04
-4448.93
3906.25
2090.46
-4743.45
-7908.2
-5150.47
2037.4
8126.5
-2180.52
-4823.92
-680.596
13783.8
-8712.14
4162.09
-407.6
6021.94
1917.84
-6647.62
16368.6
6085.06
5771.05
4671.59
-1587.79
10925.9
-4783.75
-5556.12
-8725.56
-17265.5
-12588.3
-11164.7
-62.3658
1881.85
-5078.93
2350.66
17520.9
16441.3
4178.48
1167.65
-2465.06
1563.98
4115.18
6063.93
7350.5
-4167.02
-306.161
-2325.83
-5743
-18388.5
-7216.24
-3465.77
3338.08
-9679.54
-3653.55
-4330.38
6684.25
-4555.57
-21360.3
-3155.24
-950.901
4737.62
17932.2
-5041.43
-2679.49
-9844.5
7184.21
-7863.85
-2416.78
16774.3
10626
7121.24
49.3476
-3162.04
4872.89
-8977.48
-1999.83
-2818.48
3048.23
-3649.89
9406.86
-762.552
-1239.93
-3959.8
8108.45
448.373
9417.13
14258.7
-996.795
1241.66
-38.3729
6502.2
-6059.07
298.651
7681.85
-5650.64
-3016.66
-9149.93
7981.06
-885.761
-6022.59
-1968.53
3958.95
2459.44
-9002.5
-6279.29
-4283.17
263.24
8504.8
8333.82
3369.19
-5748.02
-5306.83
541.845
-6207.19
4643.9
-15602.2
4978.34
-4218.95
-10748.1
7653.26
-3191.82
6489.03
4770.76
-18652.5
7603.61
6183.23
-1617.05
-602.063
2086.28
8672.92
4920.14
3116.98
4559.26
2135.87
4493.82
-1903.29
-15966.7
-5375.54
3670.85
721.292
-5250.62
-3263.69
-4481.37
-10097
-8429.49
-3709.69
2089.6
6751.63
-864.83
-11615.8
-4948.86
2884.62
294.021
3063.23
-31.8799
-699.817
-1128.39
-3009.71
-6965.78
-545.554
-6202.41
1183.55
4514.51
1592.64
12401.6
7072.46
-4379.81
-9701.45
4540.3
7151.47
4746.09
-689.396
8348.05
2459.82
-10387.5
-9108.84
-9107.16
1252.09
14506.9
8984.78
-1530.46
5505.93
-2467.63
-14661.5
-826.85
-1543.53
1054.87
14568.3
5774.75
4358.37
4283.47
-12833.1
-1179.5
-7900.05
10285.6
2270.14
2783.11
-13071.5
2121.12
13720.6
-1202.99
6799.74
-2361.82
-6725.06
-10910
9022.9
3694.39
3300.73
13297.7
-8979.24
2787.29
-6185.77
4631.51
-1914.05
284.453
-3900.96
12439.4
3561
5037.8
9932.9
-9507.89
-2469.08
-2755.58
-1144.67
-1651.13
-14421.5
-6129.27
16016.4
17011.5
-3126.19
-1696.03
-11717.2
3139.29
7606.44
268.537
6857.35
-3997.83
-13298.6
1145.13
3728.39
12.1839
3926.38
1991.59
-10538.5
4251.82
6051.12
4281.07
-2978.94
-12572.5
7594.86
-10175.2
11781.6
789.445
2758.01
10723.8
-3281.42
-9919.71
-8932.21
-5684.16
-10514.5
2744.97
-2608.78
3764.93
16061.2
506.781
-9892.25
535.242
16191.2
-12103.1
1501.14
7757.66
-14200.2
3717.34
-11784.2
-9098.18
-1075.08
3536.42
-3461.78
9709.73
5728.25
861.103
-7556.71
-8515.36
1771.32
4683.79
8356.77
-6259.63
15586.1
11554.8
465.477
2683.15
-8644.4
-2933.79
4139.48
-8528.15
-1372.45
5276.1
7976.73
12611.4
-12136.7
2860.07
-3265.69
-9838.18
1459.42
1937.22
5185.87
-1455.15
-5050.16
3541.9
7778.56
-7288.41
5782.88
-16163.3
4460.36
1762.01
-21341.3
12609.5
-16337
-13367.8
9074.1
-5265.89
7724.63
529.385
7822.25
-3435.88
-6215.56
16071.1
2259.54
-2734.79
-2431.98
-173.095
6490.49
9719.09
-2338.59
-4490.75
9037.06
-3511.09
-9803.94
-4813.55
-3547.77
-9682.83
6789.39
3441.91
-3452.64
-1884.24
3556.18
-9960.68
-1225.52
22459
4926.27
10522.1
-4579.92
-3926.37
2283.72
-10304.6
-10195.5
-234.938
8484.02
4861.41
-1557.9
6321.09
2463.15
-6611.17
1417.54
4420.77
319.421
-7527.55
-7891.96
-3440.34
2427.3
2607.2
-5259.6
-942.056
2199.6
6306.64
-3562.74
4672.36
-3150.35
2928.31
1852.51
6001.91
14569
1122.93
-9878.46
3695.47
-5166.35
727.58
-7797.88
9691.92
9000.58
-2638.74
3219.62
-5917.33
2587.37
-7749.75
10467.1
8445.42
11509.9
6752.38
8507.64
-25.8817
7386.23
2277.1
939.456
-2493.76
2337.36
4745.42
-301.753
4441.81
4160.64
-7482.04
4767.6
-1208.61
6858.02
109.132
-8286.18
-3106.3
-1357.61
381.515
-40.9749
-4365.87
1859.13
-8355.81
3096.92
-11530.6
-9044.59
-8924.93
6212.19
-724.218
3258.47
-2319.34
-4872.19
1730.09
1253.8
-2889.2
-9923.18
3319.14
4749.36
-281.85
3433.33
8502.27
232.79
-2950.76
-2914.31
1326
6068.84
4006.32
1439.02
-3582.88
10545.8
-1896.16
-7910.79
-5635.52
-2192.96
-5522.87
2546.07
11546
-5162.37
3817.58
-20908.1
896.556
7670.55
-8221.25
-2800.47
-5558.73
-7713.45
11878.2
-4914.36
-2709.74
12243.6
13503.2
1262.68
170.319
-8471.06
-4260.44
-817.598
-790.303
-835.825
-1230.83
-4192.91
-642.407
-3506.24
7211.67
9374.67
-4091.94
-11700.4
6493.79
-2005.98
635.471
-9889.27
-4501.23
-3153.16
-6675.24
-16064.4
1449.46
-3355.86
-6605.46
1429.26
396.115
8861.27
5959.39
3566.3
7048.05
9257.79
398.098
-3907.95
-8354.97
-18993.1
-2128.23
-9181.68
1203.17
-1331.19
1659.78
9750.84
-3851.06
18458.6
-7746.29
7306.49
-10751.5
-3511.35
900.138
14184
17305.1
-8742.93
-133.123
-257.107
-14582.6
4081.82
1135.26
-2500.74
-2684.45
3510.26
14712.2
-1344.8
6876.86
5237.7
-13334
-5109.03
700.006
-14084.1
157.027
-8978.12
-2269.56
6380.03
-3358.14
15132.9
460.083
-7935.51
-4356.18
6443.15
6778.43
10837
10324.6
4378.18
8266.83
-19725.9
9182.95
-12105.7
-2392.61
-3065.42
-1131.03
5881.64
-602.613
-6532.16
-586.728
-4152.49
2608.49
-9915.64
-419.629
-5470.55
-7307.75
9619.96
18119.8
149.332
4027.36
33.2956
960.771
5555.23
3223.65
-6392.77
415.952
-8174.91
13510.3
1189.33
-3486.39
-14562.6
-5670.7
-5725.03
9681.25
-5752.13
-3374.26
52.1834
904.344
-1079.1
-7639.03
-11676.5
1901.28
8222.51
-6527.03
-524.613
5486.7
-9507.96
-4084.6
2736.46
10497.9
10599.8
8736.81
18576.2
4627.35
-6389.3
5124.94
5800.4
15163.4
3453.14
2762.26
2660.84
3318.79
1623.5
3147.26
-253.313
-4556.89
7124.56
-1332.83
-4247.26
-13275.3
2789.21
-13535.4
4703.68
-7069.22
-8205.15
-10899.4
-250.823
4525.86
892.965
951.641
-4023.37
2463.3
-124.369
-1775.12
-2737.06
7968.54
1411.21
6553.1
-547.468
-4608.18
13594.1
-20932.2
1402.71
-4249.81
770.424
-3371.65
-17552.4
-10193.6
-986.886
1357.88
-8186.89
-12453.7
-18464
-725.952
1501.32
1316.27
-7382.5
3730.75
-494.557
-20522.6
3585.86
-3657.46
-771.765
3045.77
-4763.29
6456.16
5227.62
-773.053
6455.51
8814.65
8649.42
14932.1
2190.37
11157.1
4145.19
332.217
-282.63
-2678.52
5918.92
9950.08
-3518.57
-4749.53
-2524.55
11433.7
-2860.47
7520.11
417.736
-4089.73
11755.4
7498.22
331.423
2716.19
-7836.82
-729.362
1483.45
4079.02
-1697.79
9472.73
5838.43
-7276.35
435.746
3888.5
-3961.04
7275.82
-1803.54
3536.93
-4987.64
-3186.56
-4985.25
2803.2
-1609.11
-5521.34
-11991.2
-2945.96
-2454.35
1714.09
4391.46
-16957
-1906.23
7669.61
1398.09
-13141.4
-5306.91
646.325
-15699.8
13713.8
-4644.92
-6030.15
3830.59
-9174.05
-5168.67
7478.99
15886.4
1601.26
3661.44
-240.139
6901.73
1864.8
-298.908
9078.44
-2406.62
-6185.36
5591.8
5704.33
-1570.81
6252.4
7611.45
-535.437
7087.84
-4646.18
-6293.07
-13064
-1242.81
-96.9199
10795.4
3737.71
4870.16
1995.94
-7678.1
9425.91
-11704.4
-2554.93
-991.73
641.778
7587.6
5418.39
3926.54
5056.65
-2430.71
-8555.14
6293.63
-5657.48
-1147.85
12176.5
-13554.5
-14946.3
-8502.21
-16799.9
339.53
3567.75
53.2207
-2107.97
-8629.26
307.227
1997.65
6368.72
-10238.3
-13576.1
10194.9
1808.17
438.36
15109.8
2121.19
8873.3
8646.01
2544.3
-10523
12108.9
-723.819
-3941.86
7478.62
-15489.9
-3911.4
-2901.44
9010.63
3144
-5513.08
15413.1
3702.55
-3769.14
-3095.28
3012.53
-3264.49
2498.44
-2200.17
-3438.03
-4075.83
6864.61
-2873.16
825.51
8100.33
-11234.7
8303.59
5802.27
-455.363
4179.9
-9782.24
161.485
-10616.7
1121.97
15675.1
585.253
170.386
-1020.19
-16967.3
-6893.27
-2475.94
-5712.65
5632.2
-1494.66
1517.08
1369.43
-10987.8
-17015.2
-9466.86
1723.79
-5203.56
3644.43
3649.67
-3126.72
1726.83
11436.8
6141.66
-1124.73
-532.853
164.38
12968.8
2771.83
3760.6
-2327.31
-1585.58
-369.334
5106.18
4068.78
-3764.65
858.241
-7636.39
4986.67
2048.98
-20429
-8870.49
-2343.53
-2383.56
14271.4
2232.7
19168.6
8663.59
-8682.91
26951.8
1735.67
7887.64
-10336.6
-9479.79
4231.97
-7251.35
-13560.7
3077.47
7280.58
-10.0609
9478.01
-12855.9
-2020.69
-6579.7
-6600.92
4699.52
9620.56
-2652.43
-6152.83
2156.48
5880.01
11042.9
-12942.3
-8034.13
-199.209
11224.6
6205.84
-8021
13544.6
167.561
34.8615
-6069.56
-1854.63
12385.1
-271.726
5080.9
12458
9997.53
-3609.08
-5280.97
4614.75
9045.2
4853.17
5763.45
340.798
9245.23
1570.16
-1168.22
-3059.43
6313.5
408.833
11184.9
-3698.39
1283.81
4746.28
8673.24
658.843
2738.96
-2472.38
279.636
6575.9
2201.84
-55.1181
-334.502
1928.26
-2387.4
-12171.7
-3166.61
-8981.52
-183.905
-9214.49
5277.37
-14212.4
3150.35
-491.441
-3330.88
-3248.64
3679.25
-1434.84
-17749
-6843.14
192.266
-14264.8
-9583.74
5929.4
4232.92
-7301.16
-4462.49
4173.3
8066.56
-940.449
-5464.82
-3196.93
-4734.51
-7438.95
-2412.8
-12768.5
3006.46
3887.52
-8568.35
-2624.19
-957.034
1425.86
651.345
724.647
2708.21
1175.98
1835.29
2795.26
-7673.93
10929.6
1380.15
1699.04
-2215.92
-2709.98
-3491.52
8151.35
3672.2
-11405.5
-5532.63
12679
1237.81
-28.3382
634.081
4399.89
-8294.15
-9015.55
10644
11542.8
-937.765
1055.89
-1328.71
5725.87
-9493.44
-7190.96
1090.21
-3082.78
-2515.08
4845.42
-1274.52
-6499.25
10554.8
4716.53
-1226.78
5042.34
6542.18
5656.93
-5813.32
-10866.4
11460.5
-5586.42
-7957.33
8648.34
-3708.94
8612.94
-2646.88
-4171.42
-5202.04
-3871.99
2536.11
-2144.78
-4261.97
-73.2569
4684.02
-6144.1
626.865
5241.77
2569.59
-2442.47
6836.17
-2518.09
-12741.2
-895.657
16337.5
5079.37
1287.16
309.507
2354.44
1855.42
10631.6
-784.788
-4224.63
346.677
-6293.93
-8458.81
4551.22
2415.12
-757.087
-6520.4
-2597.24
-4603.64
-1950.95
12922.4
11250.8
2859.2
-5333.99
-2527.11
-7239.72
2076.2
1765.24
-7593.6
-443.05
-651.211
2510.48
-13667.7
4492.5
2625.8
-7910.54
638.392
1180.75
4817.8
-1036.73
-11202.2
-7977.89
3107.75
4018.31
9751.58
5171.14
3388.94
2261.2
-1154.46
2432.21
4961.12
-3908.18
7359.81
-2351.95
1747.4
-6383.9
-681.295
2555.33
5598.84
819.286
5134.43
1309.62
552.461
3297.72
-10239.7
-4492.14
2283.65
14822.6
14825.5
-4232.41
-1261.72
-8296.36
3727.65
1263.6
-1466.99
-6817.99
2555.21
2782.31
-659.513
-4508.32
818.005
-2974.55
6944.78
1514.16
-2118.08
2358.28
3969.76
-3537.45
9094.24
-1503.34
779.02
-3860.03
-3443.27
-2781.45
17132.6
5454.38
1046.36
-5471.24
-5951.27
10062.5
2051.28
13715.6
3523.91
5888.59
3819.3
-477.828
-2881.91
-1602.83
4820.63
3657.18
9964.49
-3976.87
4714.38
-7467.94
-6593.11
-1708.24
2590.8
10138.5
-8896.62
1116.38
-5215.4
903.357
-1826.26
13231
6972.23
-13512.9
-1270.83
-3508.14
2063.47
-2209.17
2164.89
9509.14
5153.06
-3875.1
2518.04
4811.9
-3278.89
-9417.14
2751.07
16750.5
1422
-3833.67
-13439.3
-16374.3
-14088.5
-10913.8
-3250.28
-2232.04
19006.9
4699.05
-11183.7
1844.56
2295.98
-4167.99
-9268.21
4347.92
2687.89
-970.594
1795.83
-6146.06
-4046.6
1827.86
-9236.39
-4795.59
12568.1
215.929
6441.36
3952.93
-8474.88
-2092.39
-4189.73
-2434.55
6656.45
5955.46
5987.61
10003.7
-3524.75
4056.91
11371.1
1992
1993.92
16512.6
654.808
-4772.95
-5015.73
-9203.56
6176.5
5241.31
3.31518
-2956.65
-14346.6
-10905.6
-1567.03
-1601.48
3226.4
-6956.87
-6047.99
-2950.25
-10125
-4142.59
-2077.78
9327.97
-10583.4
-436.264
-8686.13
6452.36
9985.84
-11018.8
-2879.35
-221.865
12104.2
-1698.68
9532.88
8991.83
-6291.23
3429.37
-2283.13
3390.65
-10796.3
4808.13
-13240.6
787.081
5721.51
-6581.95
-148.873
3164.64
8023.76
-2362.44
2253.91
5668.9
-20705.9
7232.51
4907.88
3242.71
14919.1
-5407.55
7290.42
-4326.85
-10845.3
5692.58
2543.04
2846.5
7401.78
158.677
2836.75
-2102.17
-4121.22
-5129.67
-16962
-9790.19
-7982.06
-13796.9
9828.91
-3002.58
-5083.37
9566.09
-9741.65
-11205.1
6469.86
19829.5
-2333.52
7743.94
9170.43
2794.27
-2604.53
-6016.71
-5298.24
-14117.2
-2655.5
-5956.61
7009.82
11253.6
-11809.6
-8755.16
-2180.55
5270.01
-6266.44
-8933.78
11483
7393.2
-1600.86
457.237
-8581.8
6840.87
9528.29
-4505.69
-7176.18
13136.3
-4016.34
-1018.87
4407.41
8333.01
5697.93
-25631
-3651.52
-6120.4
5209.94
16272.9
-9355.32
1750.23
-3751.32
13049.4
5077.18
-1022.33
-9465.24
-932.71
-6313.27
-13386
5156.43
4776.88
5742.89
-1284.68
-4834.36
-14892.5
-4314.68
-7751.97
403.053
9082.41
-8705.23
2215.18
-3181.51
9103.75
7170.66
-2889.13
-4170.98
6554.57
-594.037
-12046.3
6258.64
-3674.49
-7664.94
12075.4
-8380.47
-14900
6055.13
-4108.11
10542
3174.5
-17080.4
5299.65
6208.65
-232.023
-7634.34
-2444.5
10205.1
-2410.33
11219.2
-10742.1
-2293.77
-4901.91
-1488.83
16126.9
-416.842
-1974.13
8354.71
17033.2
370.262
-6263.29
-1658.04
2279.99
15427
3533.74
-4108.9
7033.03
1613.04
1511.96
1920.54
-17968.9
-6386.72
4228.2
828.352
2144.07
5305.88
6168.01
-1094.15
3037.72
1359.98
1676.68
-1965.12
6408.2
-4488.16
7002.57
13891.9
5966.96
-3078.47
-10582.2
-1200.8
-2744.54
495.169
799.87
261.018
-8877.05
-11670.5
-9854.26
2881.76
-6475.38
-13779.7
3398.32
-1733.66
7119.92
9907.61
2784
3291.1
-5899.16
-12020.8
2129.72
5585.53
3270.37
1735.63
817.886
-398.459
-6951.53
1716.63
784.137
2693.62
-1664.15
2485.83
1818.62
-3294.21
-8557.54
-1847.62
-3720.33
-4044.51
-1334.55
-10168.1
-7110.61
12479.4
-8114.2
-5342.57
6067.26
-7522.11
13516.4
730.484
-8159.61
5989.16
42.4116
865.516
-106.889
5772.3
1192.37
4447.24
-4702.94
-1072.91
-8507.53
3634.3
3345.33
-8651.89
-1164.05
4226.89
1508.6
14913.7
15846.8
-6624.73
592.325
4989.68
4607.74
-1575.87
5353.82
12343.5
-2287.97
-4266.8
-10769
1051.71
-3938.02
-13624.4
-11048.5
-6931.13
59.6148
-3746.54
6278.32
15203.7
-225.014
3834.01
98.8012
-11247.5
-5912.42
-13494.9
-15494.4
-6306.78
-4970.83
9168.71
3690.1
3429.71
23266.6
-6136.43
-7622.77
1184.78
3311.98
-711.085
1102.97
-3074.39
3140.22
5564.89
-4517.87
-6638.08
5899.77
5653.54
266.841
-4288.58
3067.77
-8650.96
-15055.6
-13850.1
-5991.15
-5329.88
10006.4
8080.61
128.057
9902.84
-5064.79
9397.27
10965.3
-3462.6
-1785.82
-14327.5
-7938.24
5784.78
7222.93
-1962.25
9148.09
-2559.25
4166.22
540.13
-6781.23
3022.48
-6736.37
6871.34
-6450.89
-11702.8
-6655.66
-5816.28
5378.3
-7431.89
2318.39
10884.7
-7457.62
4042.24
3043.19
-46.8197
1276.33
4116.48
1422.4
-7159.2
-4792.49
6614.3
352.397
-5518.39
6358.03
-2245.47
12246.3
4514.07
-14730.6
2565.28
-6351.42
6987.21
-6501.6
-12506.4
459.25
6115.27
-7741.81
3238.8
4085.03
-10683
8831.21
3163.23
15044.8
8304.18
-13595.4
10794.4
2989.27
1937.41
13211.1
-3529.16
826.949
1851.09
-3809.54
-3110.54
788.52
-1463.81
-9999.45
3702.03
-5111.79
4504.16
10405.4
-4602.09
-8631.7
-7560.44
247.615
2457.1
11075.6
-6361.87
-10388.4
4300.12
6587.23
9259.44
18024.6
5579.01
2723.69
-5278.61
-5676.18
-9230.06
-2439.65
788.675
7436.16
4162.83
10169.1
-1896.43
-3179.5
12297.4
3366.93
7934.13
-12959.8
1746.33
-1611.12
4226.36
6169.79
-12846.4
3103.09
-9883.79
-2905.01
6066.25
23094.7
2060.55
9796.67
-1904.84
1296.36
14664.9
-887.352
2722.52
4104.65
11764.5
-12340.2
-705.461
-6405.19
5310.71
1561.06
6196.92
9600.28
-15008.5
8767.3
-5296.51
-1382.69
-13050.7
876.504
2059.09
5504.11
153.512
2028.94
6606.06
-4223.46
3290.2
-9568.86
-5342.31
-5717.98
-11095.8
-6238.22
2254.49
1546.2
1975.71
-787.226
-1083.61
-2252.03
503.467
10276.5
-8773.19
-4983.33
-5994.85
6182.93
-16235.8
-4231.42
-15730.7
-2997.23
5987.18
-6370.71
7814.91
-5569.83
2443.42
-2187.4
-39.7644
-11021.2
-6108.75
-8851.98
-25973.8
6833.52
-10958.9
2565.62
1861.72
-5220.35
495.874
-5001.7
-1045.69
-7091.34
-7585.07
16061.4
-1177.91
-363.73
-4986.67
-670.736
5908.79
7061
-809.565
-4917.22
8060.28
-11108.6
-4050.63
-3448.14
-399.551
9135.83
-18006
8446.35
2717.44
8446.11
360.72
-10367.8
8116.79
4576.03
587.576
3913.06
6380.92
6496.51
2947.83
-4007.61
345.415
7320.66
2791.47
-2867.89
-274.46
24866.8
7987.2
-2217.5
-528.599
1819.8
-11312.2
3077.95
14585.2
13185.4
10223.4
10393.4
-5911.9
-2497.12
-9422.56
3719.53
-361.176
1513.7
4416.98
-12760.9
8515.85
1455.52
459.095
-898.3
-145.451
-9206.82
-2927.83
9360.57
722.89
-6347.06
-2221.7
-1954.31
18327
-595.155
-13972.7
8379.28
2713.26
-7377.68
10221.3
15191
3482.99
4525.3
3130.19
-1813.18
-4237.62
-17314.5
-1211.92
-6619.79
-5200.01
173.714
2481.36
16140.7
-1527.16
-17264.8
82.9708
1058.35
-1256.12
694.352
9257.13
6216.65
1343.13
440.208
-145.468
-15421.8
-10792.4
-656.728
-1266.66
71.0097
-8525.17
-2202.36
1940.82
4238.2
3212.91
-2293.2
6370.61
13136.9
-5420.08
-9245.97
-6699.55
4227.82
1518.43
495.802
10810.7
-6348.22
-1488.41
611.14
2655.45
-4468.65
-3654.82
7018.67
-8672.54
1276.73
-13361.7
-6226.59
-2027.14
-5872.55
-4957.55
424.054
9088.07
1465.64
-5291.64
4810.09
-5900.85
-2565.98
-7760.09
6016
11472.6
-5357.75
-4195.45
-9876.67
4968.21
4514.37
11524.5
10107.1
4935.7
11550.5
-6948.89
-3515.71
-5433.9
4090.17
-3269.29
5068.53
1555
16322.2
6349.93
2021.25
4580.86
-7962.59
1210.22
-16607.7
3992.55
-3285.76
1830.83
6609.81
9423.15
-4746.3
-1551.99
7171.39
497.833
6857.03
6811.52
-5216.92
18887.3
3596.96
-537.125
2864.29
3150.55
10376.4
4963.48
-1283.46
689.612
-13178.4
-4366.69
-3166.49
3410.76
10.1715
-1590.45
1683.43
-7302.42
-10287.2
4893.96
-2715.07
-183.801
-2742.85
6793.1
-10095.4
-2345.74
-5676.89
-7252.36
3837.09
-14133.7
948.323
3759.01
-3856.09
4536.27
-1849.03
1345.7
-10452
281.378
-3646.18
-8737.58
-1556.08
14179.2
3012.71
-2597.92
1138.57
-8653.58
-186.315
4620.68
-3565.78
-5656.21
201.235
-3201.48
3455
-4295.62
-2307.89
4202.54
-362.893
-1781.44
-5461.94
-5588.33
3795.4
7307.64
25.8929
854.939
-6509.32
3084.55
12214.5
3790.45
6094.02
-4848.28
2672.02
-12700.7
-1240.67
2355.38
-3048.6
3744.63
6202.07
-4853.32
7800.71
6447.03
-7988.7
471.052
3628.75
5639.1
-1405.52
-4665.27
4712.12
-1398.14
7003.25
1873.63
-5183.95
-5382.93
2723.59
-12312.3
3262.51
19047.4
-2413.08
2636.33
9058.05
-1532.43
-2407.32
5881.77
10860.6
-8858.49
-3131.97
-6183.02
-7782.35
-408.416
-7216.7
14257.6
-4588.12
-3614.98
1566.38
-7161.99
11465.5
-3011.66
-11377.5
-4346.38
-2937.51
8176.12
3744.4
231.3
-5066.37
3243.13
8705.01
-759.277
-3805.57
-1760.08
9461.9
10971.4
7409.84
-12118.3
-1033.39
498.616
-12418.7
9584.77
-8059.51
619.39
-1175.38
2896.43
11636.5
13569.9
1257.09
-2061.04
6586.07
-6335.03
13606
4635.78
-988.156
142.073
-1249.27
-7841.22
8053.37
13031.5
1990.58
2703.99
-11177.9
906.842
-7358.94
-8766.7
7783.47
-13032.4
5340.32
-2461.55
-17609.1
-3520.7
-3998.53
20169.5
8451.38
4135.4
14149.7
-4543.94
3657.74
-13819.6
-9628.08
-4500.46
-3413.21
-161.645
2635.22
472.357
10256.4
-259.925
-1413.64
9273.98
14021.9
190.758
-4125.52
-1226.05
-12895.2
-2185
8727.18
3750.55
-1992.04
-5567.3
-4905.05
2508.91
7150.58
-3084.45
-3890.4
2927.54
15643.8
-349.488
2342.2
-9800.67
-7867.82
-2117.23
-85.5608
7883.98
14100
-4173.28
-2757.1
-1830.01
-24084.9
-4183.44
-3515.31
-7752.39
-2893.89
-12681.1
-10226.1
6150.22
1089.33
5066.98
-2466.03
-3666.33
9284.31
-8817.53
3970.77
10606.4
14607.2
-4455.21
343.733
1219.42
1138.34
1967.56
-14687.4
13735.4
370.091
-11418.7
-172.955
-968.489
-8172.18
1805.07
-7862.07
-6636.73
8575.55
433.762
-4077.62
-310.307
-10976.9
-13444.2
8990.42
-3681.99
-9171.74
1035.1
11482.2
7054.13
-1567.9
-5146.1
4389.29
6966.49
-10107.4
-443.974
3704.15
-8514.9
10835.6
4597.58
4998.05
81.0447
-15.8373
-4315.04
-1556.97
-6582.51
-124.966
3118.24
6188.66
-6212.73
11355.1
14038.3
-2432.51
-2213.9
-1129.51
-2243.2
-4482.12
-2690.77
-4585.23
5660.94
7921.04
-3083.89
3010.95
-4191.63
-1578.64
-2645.65
11284.4
-9958.13
2915.36
8307.66
-11357.6
3661.54
2297.61
-9934.96
-1919.92
-4945
2448.47
16563.3
-1066.37
1421.87
7382.94
-4111.08
-11172.2
-14432.6
-503.585
10910.2
-1515.64
-2165.52
714.226
4324.2
3586.27
-5073.64
90.619
1266.73
-5350.96
2159.69
440.306
-3233.1
1459.61
-1041.4
5977.61
11695.4
-1389.76
-5795
-1227.79
2443.04
-10852.1
6251.26
-2982.6
1872.02
-9404.45
-2822.56
17148.8
8888.26
10866.9
2426.67
-2411.41
-14519
-14848.9
4509.12
-6643.59
7598.32
11282.6
-6743.29
-2671.22
2715.99
-879.501
-12800.7
-6097.46
6868.94
-13199.1
-3163.01
-433.358
4064.49
7680.2
1597.01
-10955.5
3552.09
4241.63
-14837.4
8015.57
1153.87
-7036.23
-7962.95
2195.87
15365.8
13805.2
5949.89
-3518.54
-891.142
7397.92
-7293.86
-647.712
5374.09
11601.4
2133.12
-4354.56
997.689
3717.79
4045.07
-7777.25
7191.09
6489.96
-5523.84
-3368.6
6708.87
-1511.48
-10076.8
-14180.4
-8863.21
139.873
-6589.46
1218.29
-1512.91
241.42
4433.86
1060.79
1991.68
-4968.98
797.171
5856.42
169.835
5870.9
-2390.59
-1655.98
4771.56
-5405.08
4423.94
4806.69
2389.53
2765.23
-5648.91
6421.85
-11381.2
-10150.3
-4115.29
5560.81
3482.25
-1254.92
-4562.75
1382.4
-7975.57
9325.28
4054.63
-2982.5
2401.3
-3747.45
15653.8
1639.18
-9236.85
2690.42
-2236.13
4175.57
-3214.85
947.789
-1226.36
11036.5
1603.7
9636.7
1830.07
-7792.88
1044.69
13713.3
-12835.8
-6929.23
-876.756
-10104.4
-911.848
-7050.47
-2525.62
2510.86
-535.971
-2576.73
837.454
3269.44
-5262.43
-1982.67
-3709.05
3362.1
5718.69
6642.37
2717.66
17270.9
5497.66
-3235.74
1132.38
2171.13
536.379
197.155
2007.08
-10380.5
364.299
-7724.18
-21731
1471.22
18425.6
14579.3
8024.73
-2014.91
-759.285
-12649.4
-8228
-10615.4
-1723.5
6418.63
-12565.2
9000.22
10937.4
-1625.1
1111.68
-7625.07
-6882.08
1349.25
12189.2
-3152.13
-2232.41
-11818.3
4353.85
1839.38
-3605.9
11845
3245.67
-184.278
1350.69
-4016.27
1909.45
10774.8
-3121.53
8828.48
-4497.88
-2549.83
11094.1
10546.9
12258.6
-6045.68
-8163.78
2845.96
-19435.6
5546.51
-293.697
-5617.75
1483.5
3343.09
-4450.13
-7041.52
-5235.31
-15641.6
-12039.8
5595.75
-2981.61
11989.4
-8409.27
209.02
-11207.5
-16019.7
-3570.97
580.224
-6704.46
651.038
3521.5
7284.52
6790.04
3319.36
8401.75
7419.65
-3758.95
374.367
-4856.57
11371.6
-1470.91
5227.99
-6239.73
1455.21
16510.8
-30.8297
-10116
-5210.96
11399.7
5518.95
435.248
-475.6
721.315
8604.51
-245.785
9955.96
-1697.65
-2931.02
-6853.21
4573.87
-4193.63
-10356.7
-7749.44
-8283.63
1824.83
2574.88
12582.3
-1452.09
4766.83
-7157.96
-7920.55
-2281.01
-2911.7
4655.83
-1612.8
-7030.44
-10722.9
6248.79
7482.76
12793.6
-4555.54
-4292.52
6826.31
6231.25
8686.21
-800.468
12179.1
3517.05
-899.794
-2903.42
14571.8
745.721
-1403.52
-2973.27
-6123.06
10197.5
-2618.14
-5597.5
-3303.96
-8278.47
-8497.16
11492.6
-4097.84
-7213.79
4167.72
5917.91
-8925.1
-15266.3
-1019.03
-7053.04
3962.95
1091.82
1459.7
-2902.84
-1801.11
9362.17
442.038
3100.43
-25892
-3491.37
-2961.76
-14793.4
9100.21
-8317.65
7493.07
8120.44
-1703.97
12527
-3346.92
-2060.23
12429.4
11565.8
-280.132
264.857
-734.255
-6518.56
-7460.1
5177.19
-4473.97
5195.65
-4937.99
-3940.77
-583.758
-7481.97
-129.78
-3113.84
3292.18
3488.19
-4884.78
8958.87
-2466.97
-3969.84
4224.79
3304.3
12775.8
12486.4
-5736.97
-3188.97
9946.46
72.1529
-8906.17
12197.4
-8582.71
-11908.5
-6002.05
-99.0016
835.738
3877.75
4702.09
3841.79
414.959
6694.01
15121.2
-5319.27
-10991.4
-6612.67
2207.38
3176.03
-3570.81
-994.231
-6497.44
-2383.75
4374.35
6504.43
-2425.14
-5538.23
7110.46
-11493.6
-13812.8
-7080.19
-13961.9
9660.84
-4085.77
-7265.65
8119.57
-1931.92
15734.2
4649.7
-2387.73
-20.5641
-839.69
5216.33
4920.98
-1913.31
-1960.52
-6630.43
15651.4
2869.83
-2126.07
-6839.35
-11429.4
4184.16
-11984.9
-3197.62
7875.35
-8811.69
-824.193
-3171.37
-2143.53
10408.1
9622.56
-977.983
7092.16
-5657.91
7511.63
16127.5
2825.19
-6678.08
-11593.2
1628.28
10615.6
936.524
4720.63
1013.24
8145.67
-5152.76
-5620.62
-546.391
-5984.94
-4487.92
-15353.1
1858.64
12883.2
3366.4
9435.86
-9049.81
6533.43
-1630.82
-10335.6
2785.96
4343.14
7486.69
747.053
5014.49
-3304.49
9569.35
3078.2
-19752.2
-5222.26
7954.97
-13284.2
1301.78
13859.1
6724.24
13141.2
10755
-1468.26
11589.7
7251.67
-6045.57
6258.31
-4173.3
-10042.2
3705.78
7258.08
11930.7
12432.1
3353.86
-10431.2
-7901.4
2653.1
-2106.89
-6410.42
-11017.6
-2787.92
6935.4
2143.06
9633.44
-6987.55
3015.8
9823.33
-728.668
9633.67
6611.42
454.261
1460.52
11824.8
-9094.52
14942.1
16483.1
1820.23
-696.871
-13266.3
1146.35
6545.28
-3097.39
4095.52
-7644.67
-9609.15
167.898
-15878.4
-13495.6
-4582.85
-4758.99
4783.63
-4493
-4157.28
-9417.03
10286.2
1565.95
-13313.5
3409.52
4426.89
-446.466
3800.22
-16466.2
-1048.22
6260.81
-3623.7
5817.61
4911.65
-4417.05
5446.66
-2343.4
1883.62
34.9544
-4306.88
-5244.13
-7635.18
-2459.18
-6687.19
4429.84
-234.911
-4923.03
-5238.27
-10338.4
-3015.16
-9321.82
7405.14
6557.45
-1567.79
-6081.76
8083.65
5766.9