# vtk DataFile Version 3.0
PFC simulation results
ASCII
DATASET STRUCTURED_POINTS
DIMENSIONS 128 128 1
ORIGIN 0 0 0
SPACING 1 1 1
POINT_DATA 16384
SCALARS psi double
LOOKUP_TABLE default
-13466.3
5294.14
-4905.51
-3056.65
4287.69
-2761.6
-2494.92
6910.18
-3063.31
14886.6
-4576.23
-17256.9
-11378.4
-3143.73
9756.96
-2856.85
-7918.7
-4590.4
9599.89
24776
-5351.89
2881.78
6093.18
-5317.3
14438.8
-2980.51
8695.65
6529.94
-8047.27
2238.56
4232.72
-9585.73
7681.3
3578.09
8936.36
-183.176
5477.77
-5812.33
4782.6
4861.31
-6436.34
16750
-18937.7
-9823.83
-12011.8
3277.8
1591.91
3783.58
-5033.96
5507.95
-124.537
-16166.1
-4094.24
3439.4
-10817
-3189.3
-16482.5
9974.96
195.986
-6347.33
1547.82
5822.31
9024.82
1216.82
-16879.2
-1136.24
9686.24
8331.2
13666.1
-14324.5
-1904.88
-7397.1
6487.87
6087.83
-2700.98
-1759.79
-7308.01
16515.4
7089.46
5156.45
-5235.72
-4419.51
-15873.1
10855.6
-10353.7
-5044.33
-15003.6
-5237.91
-18537.4
-1212.23
-11379.7
2024.7
-15684.1
-9692.12
-6363.02
-752.284
931.141
-2042.65
21825.8
3344.69
2775.22
1203.81
17293.9
3507.18
7576.27
10773.7
-12660.3
-1509.61
-16081.4
612.756
10918.9
15181.8
10141.9
-936.427
-481.531
-6963.76
-6269.42
4478.82
-7598.62
2499.03
-7965.04
-1492.15
10974.7
5871.64
-2538.54
10670.9
12271.8
10496.4
-16251.8
-4934.16
-1285.99
3901.55
13830.9
-41.7559
4588.15
-4853.4
-8653.72
6010.01
-4690.08
2896.07
-5455.81
-3650.37
6424.73
-13673.6
-17060.6
-9380.35
-7611.34
9136.66
-1958.99
2769.94
7661.51
11953.3
2019.69
375.304
11462.7
9875.73
-4893.15
3241.16
-7587.33
6386.46
-10831.3
-10114.8
7582.88
2940.05
5500.16
2028.79
-254.342
3262.08
11722.7
1330.27
6403.13
-4282.74
2149.39
4662.15
-1634.07
-886.142
-10701.4
9097.5
-6041.41
1240.71
4040.12
-6728.13
13067.5
13866.3
5689.34
-4610.2
-6068.26
-14602.4
2202.9
-3642.77
-6382.29
-10643.7
-5138.5
-4954.7
-2639.65
6992.21
586.718
1116.14
14720.9
-7744.01
76.937
-7459.99
-11905.6
2107.28
-3850.67
-5010.67
-8629.22
8857.22
8170.24
12017.4
12260.7
1683.33
-5701.05
909.99
-10998.4
-6720.17
-7512.48
-12299.6
-5354.66
-7545.98
-2396.94
-7898.5
-826.816
-14408.9
4121.99
11758.6
11816.4
7424.98
12751.3
8378.95
8426.29
5236.67
1133.5
-1575.7
-5575.18
-5203.2
2083.77
-406.962
-10508.8
3519.94
3739.43
1957.22
4686.7
-199.963
-7291.26
-1207.01
-74.4943
13833.5
-1980.28
-5656.33
-941.614
13006.3
-3772.36
3557.87
-4791.51
13835.7
-8798.98
-6144.96
-14058.9
-8856.83
-11405.8
-394.965
-16839.1
8772.56
3438.96
-4013.66
11860.2
-2621
1850.45
-1872.83
-2228.77
984.009
14027.1
-2563.97
-7680.78
7618.97
5983.24
-1637.54
19944.5
-8628.29
-1237.22
-13589
-1068.68
10561
10819.7
-34.9358
-15846.2
1137.63
-6717.59
8857.96
-4794.2
-5298.1
1907.48
844.003
-608.318
-5777.91
-8065.32
8424.41
-1927.44
-10182
-8318.76
-10530.3
9643.84
9086.41
2542.89
-982.889
4757.73
6476.56
20817.8
965.819
6617.67
-4367.56
-5632.49
-4612.97
-4717.55
8264.34
11822.3
1534.45
3555.95
9326.6
870.328
-1073.4
-1174.26
3858.7
5219.9
-5063
-4204.92
-747.612
9416.37
-6062.37
4727.57
-5457.13
-1174.23
2016.65
-4481.17
-5995.44
8314.15
2017.08
2368.14
10610.3
-4548.17
8892.96
-2657.19
-12527.7
-3135.39
-1051.57
-1305.42
11434.7
-5652.47
157.317
454.765
13735.2
492.627
1956.1
4475.36
-5628.28
6991.29
-9283.89
12284.6
4741.34
16375.8
1844.69
-9341.51
621.245
-15412.5
4455.72
398.08
-1902.66
8349.68
632.115
-2394.47
11538.3
-3001.58
1422.48
5859.63
-1155.92
12493.7
-6348.8
761.186
2930.81
4966.17
1601.84
6794.66
2189.8
-12094.9
-4617.66
10121.6
-2303.56
4566.59
1708.95
150.683
7885.37
-6953.79
-11476.2
-18236.2
-1058
10375
1145.54
2211.98
-9972.4
-4725.26
834.221
-5142.26
655.641
1739.96
-661.441
-5434.24
1997.61
7076.49
13271.6
5821.58
-10690.6
-10079.6
6888.88
-2612.27
-2733.5
10814.4
8140.6
5175.46
-10671
7088.05
-3566.3
11079.4
5754.7
6432.97
-11290.2
-3807.33
-4325.09
1022.76
3117.94
10493.9
4529.03
-5885.56
-15861
1364.51
3075.26
-6143.2
-11638.8
-2505.01
-422.571
-4979.76
7109.43
6237.45
10986.7
9974.42
9049
-15007.2
-1413.92
-12657.3
-18903.3
-10803.4
-5136.58
-5592.73
-2891.57
-2704.34
13116.5
11225.1
-13196.2
3919.8
-13246.8
4056.98
-10640.2
3335.7
17712.5
-14862.5
-4961.37
-1300.65
3925
14280.7
11053
4585.45
3309.5
-7473.15
-13643.9
7721.47
-3589.2
2139.62
204.937
-3278.03
-3316.3
-12090.1
-2680.58
-11092.3
4311.07
-10719.9
2572.09
8523.54
-4875.09
12911
1985.32
4011.52
3653.15
5809.5
10697.7
-4727.94
9279.69
-4180.71
-2918.15
-13724.8
-4500.5
10431.2
1522.76
6776.2
6219.98
575.54
4924.17
1561.25
3446.43
1191.02
-13433.5
-1760.67
-6815.12
-17347
8088.37
-5470.19
-10004.3
13839.5
-10739.5
-3121.52
3499.05
1980.51
5682.95
13395.9
14242
-10993.2
8566.55
-8716.07
-7627.72
1428.62
-6317.39
-5875.94
-8966.62
2716.4
-15654.3
2870.8
-5965.42
1321.56
-6480.46
5970.22
-8200.65
6291.7
2613.03
6785.72
5614.87
-12494.5
11229.3
8988.52
11420.6
-2839.24
-18733.6
-963.801
-1901.06
-22113.7
12386.8
10006.5
12934.6
18835.3
-10846.5
8396.2
5613.15
7271.99
-8334.07
-10133
21475.5
3511.28
10765.9
11157.9
-5800.73
6382.3
-11701
9449.58
15432.3
11898.7
-433.492
546.894
-4467.06
-20132.3
-7650.49
3148.55
6025.94
6171.7
-3162.66
-7318.58
8430.91
8024.31
6639.7
-3978.16
-4941.16
-1310.86
-8660.11
-9608.24
-2887.4
18779.7
-11030.6
-3322.84
-1078.88
-5262.03
15453.2
-4557.48
3501.96
-7958.19
-13973
-10145
1284.27
-14511.5
3001.81
5167.66
20732.1
5953.25
-14017.8
-6282.88
-17139.1
-11593.6
-1495.24
23311.3
-5178.35
17247.1
-7587.92
236.231
-547.725
-3988.92
11837.8
22556.1
-17209.2
-15135.3
507.157
-5059.09
717.419
-1210.87
-5615.5
590.895
-4345.42
1382.37
-1006.25
-11421.6
-13119.8
7376.44
-8393.53
-7453.28
13759.7
22251
4963.98
-677.388
31.6089
-3863.1
-1324.23
-753.992
-565.339
4852.34
2943.57
3428.89
11677.3
-846.423
15667.4
-3306.96
8932.69
-22499.4
-9575.11
-3055.54
-1310.29
4592.59
11127.5
7762.84
2220.33
-7978.65
7223.95
1560.77
8504.8
-7415.4
2099.77
-1968.65
-2611.73
4359.83
9066.94
9534.59
2647.69
176.125
3832.24
-7618.28
-4649.28
-11446.8
8428.57
8324.32
4684.96
10032.5
362.225
624.692
7862.05
-4797.14
-501.648
-803.384
-4912.05
-4775.88
-2370.1
4998.75
2689.35
-2300.85
-4410.37
-81.8575
-1153.51
-121.376
-10145.2
7587.07
-6702.43
-168.366
8435.59
1776.04
7056.11
831.948
3853.5
-947.478
2459.68
7469.83
8412.43
-2543.5
10691.3
-1035.57
2206.61
-6282.12
-10453
-3874.85
-4560.23
3165.84
2396.82
-6688.04
5056.87
9233.23
8981.92
2108.56
-11511.3
8893.38
5503.59
4567.58
3974.33
-3596.09
3446.1
-1268.03
7751.11
2775.89
-7311.48
8948.12
-8055.02
-5773.9
-7903.55
2282.35
-1856.02
4623.68
-9918.71
-4324.02
3171.07
2613.48
-9881.98
9794.04
-11584.8
-7786.17
-2735.64
-879.718
14760.6
-2259.94
-311.986
5.72581
2286.5
-8052.23
-18815.2
-9702.13
-4127.67
-2108.53
14551.1
-2911.32
1893.31
2723.63
780.56
1946.3
15816.9
457.773
-100.365
-48.7958
241.403
840.7
-1179.48
5296.6
-5149.28
-3755.3
-4077.39
-14592.8
2298.4
10093.7
-81.0527
4152.32
1296.33
-5149.92
-1118.82
34.0446
10372.8
5973.14
4801.06
4299.49
5258.65
7274.82
-6762.07
2931.5
10245.6
-3527.24
5616.38
-6166.68
4860.16
-3183.83
8848.95
5936.61
-4843.54
-3561.85
-1184.59
-8286.81
-2731.31
8520.25
3580.48
-3954.52
-6186.51
-3296.46
4423.83
-2164.55
-4411.39
-6309.64
-3048.58
-9968.01
8093.65
7197.39
-928.093
-4917.13
12259.8
-1907.33
-1171.8
-4148.86
4997.36
2293.34
3772.86
-4819.47
1528.11
-4313.53
659.452
9337.64
-2368.44
-1160.06
-11715.5
7339.14
3986.21
-1759.02
-8357.62
4451.22
421.007
5489.81
-4765.36
-2621.27
2663.65
-4846.83
7573.94
4152.33
5329.77
1651.93
-9194.32
1230.9
2098.22
-5022.41
2878.81
5541.13
11118.4
7418.07
-466.138
-9484.11
-14597.2
2737.49
-3900.84
-43.0883
4067.55
-6161.36
13370.2
11776.5
2530.73
1707.46
-5808.75
-6559.21
5470.99
4355.32
-854.149
7887.25
7949.98
287.732
3575.44
-4759.65
558.556
12674.4
-1543.22
9684.26
9637.72
-15785.7
1226.68
-10733.8
-5304.61
-2846.9
-8229.89
-11338.6
4380
-231.59
-8008.62
12516.3
-3139.84
8551.7
4223.85
-10602.9
2476.04
-11351.4
-3333.06
4679
-8446.38
-9901.2
12258.8
-253.638
5143.79
540.426
-3729.95
-9810.86
474.089
-3328.42
-2646.87
-7557.34
-563.345
-12471.3
-1414.24
-3271.94
-2673.65
2432.87
3833.39
2998.49
8067.81
1943.01
-12913.6
-8870.37
9007.67
-1071.6
-1939.85
-7413.53
-4226.46
17825.4
-4939.29
-3247.77
-2465.89
13043.8
-1902.76
4138.66
-11797.7
13188.1
-2898.28
14163.1
6336.63
2428.13
-3826.39
6035.93
2063.21
-11614.3
299.599
-2898.89
420.647
-22390.6
-10534.3
50.8597
1318.3
17.5779
3013.15
6635.99
-3260.35
-3894.61
-59.1132
4337.76
6153.78
-7004.06
-10697
-4155.14
3839.79
2926.97
-1289.92
-18127.2
6188.79
9475.01
5375.29
4735.98
11287.8
9921.22
7917.28
-6402.03
11704.4
-13117.4
-8846.14
4535.07
-19431.9
-173.263
-23615.7
1574.26
181.822
2564.01
-7703.09
7770.17
-11122.7
5734.01
-8217.58
13557.2
3801.03
10520.5
10701.2
-1232.97
8033.4
5619.35
-1511.97
-7026.47
-5086.17
1854.97
5954.98
-14491.7
13937.2
6983
-5252.62
-8768.02
8821.53
8039.17
-2117.34
7323.3
-2906.32
-6592.94
-8762.87
-3495.14
-17229.1
-12149.2
-9576.64
-16657.4
-6168.76
-3005.69
-9933.17
10817.8
-3060.91
5221.17
854.828
7205.21
-8029.59
-6947.25
-12434.7
10925.2
-13964.1
-585.175
-2259.8
-2488.04
2045.63
2117.48
-624.282
10473
11569.8
-1637.48
8561.33
2080.38
9050.15
13055.9
-19357.6
-13346.3
1282.61
6337.82
18635
-11557.8
7877.5
8085.83
-9435.79
-8103.31
1965.02
-4409.22
-2618.84
4247.69
-4821.04
-2067.39
-5122.57
5092.75
8892.27
7996.15
-8800.25
-4021.53
19309.6
-12214
-3594.79
3053.44
-5589.17
-7262.36
-5381.83
8530.72
-5402.5
5445.67
12698.3
1446.95
-6103.01
-11693
-12496.8
15270.2
-10568.6
455.661
-4769.36
2383.3
-5361.5
-10577.5
10862.7
2783.67
124.234
14501.4
-16491.2
12169.7
-12513.3
-8754
2731.38
-10113.8
7475.15
-1472.49
14803.4
7576.89
-3413.4
4020.67
16470.6
9127.6
11718.7
-3514.06
18101.3
-8341
345.366
3821.98
-5581.65
12822.6
7851.18
9527.26
-7718.95
4244.41
11371.2
1880.13
-6202.35
-7222.92
-14112.2
10776.8
-13548.4
-5600.42
5828.49
-7173.41
9818.42
10645.9
-534.862
-20461.1
19022.4
-1876.86
-4627.72
-2904.97
-18856.2
-1569
4139.52
-11148.6
16796.5
-3192.03
6510.19
-2672.41
7711.94
-5538.87
-11789
5841.64
6431.43
15570.6
2870.17
9064.39
22103.3
-8825.7
1819.48
-11450.6
-9837.31
-6633.06
-4356.41
-285.359
1468.96
1613.21
-6011.94
-597.44
-15834.2
-3014.24
3425.95
2152.33
4553.43
-3285.85
8072.79
8544.48
-2716.37
14259.6
-6948.15
6329.4
-7718.82
2306.96
-6185.13
7938.04
-4490.4
8304.78
-3178.72
3089.17
-4353.79
-3395.1
-10271.7
-4343.77
14992.1
16155.5
6533.68
-8337.3
980.49
-5250.34
10399.6
-3932.2
4038.71
13442.2
-11883.2
-175.508
-7897.24
3729.61
9504.77
-1055.65
-6415.34
11213.4
-12913.4
-5784.52
-1230.74
-244.159
1375.55
-7460.6
1498.02
10036.2
-11717.3
-1805.02
-1726.8
6402.93
290.621
-16504.3
12016.2
466.839
-18733.5
2714.77
-6435.61
-3908.97
-5580.84
-4691.79
3536.41
-470.72
-7843.28
-6920.34
1562
7260.06
5802
2038.54
-8681.39
-12259.7
7981.46
4161.26
-5625.24
-5186.24
6636.82
-404.865
7.43886
-2066.14
-1449.37
-6942.85
-10859.1
618.043
4995.91
7306.08
-15217.2
-4673.57
5870.53
313.275
-6129.07
5765.04
4688.45
3856.24
-5327.12
-6428.24
-3745.18
6019.53
4088.57
-7148.41
-6527.85
6479.42
4418.58
-7112.07
2188.39
-7217.59
-3584.12
6694.24
-928.895
-9429.52
11230.2
-10532.2
8725.72
9603.23
-1430.78
2853.87
-6514.91
-10078.7
7260.49
3377.28
2211.22
12112.8
-6076.75
3531.41
1239.04
1146.59
386.028
11829
-8275.76
6005.27
1572.06
6553.46
-2105.46
-2794.15
-22.0274
17040.6
1338.37
3688.28
-523.603
8463.25
265.701
-4722.05
1465.7
-7467.5
-3803.08
-2134.16
2216.73
2688.8
-4347.72
11788.8
8654.94
7741.23
-3159.69
9384.54
458.404
4256.79
8327.08
1159.99
10214.9
-10679.6
-719.116
11262
-5633.5
-9253.78
-2591.7
500.181
7321.51
-4763.22
-10671
-3187.3
1025.67
-845.173
3169.25
-88.8127
-5292.15
6453.23
-7775.44
22921.4
2305.3
10151.8
-2485.5
-2671.82
-2418.74
901.879
5080.74
1207.09
3518.24
6096.75
-546.813
-3089.98
-12457.8
3812.9
15114.5
-991.58
-862.857
-4473.8
-252.361
-895.481
-8890.91
-7066.34
-3969.37
-12766.2
11366.6
-154.667
845.916
3530.43
9102.11
-6471.08
465.457
-5881.18
2148.09
-2877.74
-4992.86
-2527.63
8629.12
-235.208
-9192.66
995.097
-6848.67
-5911.71
10630.4
1010.85
1400.28
-10645.1
4561.33
-13241.4
-838.488
3493.81
-5327.68
-15448.8
5334.2
-17598.1
17825.2
-18153.4
-4200.2
3022.21
4813.16
2699.56
-5833.07
-8680.89
-1176.79
8306.77
4152.85
-1072.95
2838.64
-5434.59
-17023.3
2939.75
266.443
-6155.62
-3733.96
4802.18
-1335.54
1563.56
2934.7
-16847
-6245.75
668.602
4184.3
5749.25
-6032.98
-8340.32
-2793.84
2721.39
1543.87
606.205
7644.14
-8995
2026.13
-421.328
-12307.3
-2801.15
1476.88
-9045.99
-6116.39
5170.22
-7548.98
6636.76
4796.14
7188.74
-1265.4
2738.57
-4995.57
4450.34
-9633.4
2514.74
-6924.44
-3682.91
941.345
13979.7
13050.5
10616.6
14908.5
107.355
-933.961
2396.86
11918.2
5406.37
-11075.4
3187.4
7035.56
-5516.3
4730.72
869.129
2207.06
-5254.12
7863.74
18199.6
437.679
-1418.11
1107.7
13126.5
-487.535
9320.45
-5142.97
-293.56
-9345.82
10509.1
-5697.67
5580.37
-6141.21
-426.583
2171.52
-12535.7
4643.05
-8232.62
1384.36
3372.7
-1122.42
-4246.94
-2969.32
-850.803
-9830.53
1267.4
-2648.33
4778.83
-10050.1
-9098.4
11321
-3579.27
4166.27
-6598.02
5809.97
-3424.25
-12360.3
-4322.02
2025.06
-3047.74
-671.05
-22262
74.9396
3013.91
5244.62
-3636.23
-202.329
-6784.75
2679.45
1849.27
-2064.73
-13728.7
5013.94
425.453
1125.43
-4757.23
-449.078
-6844.6
1598.91
-2050.4
-3249.7
3876.08
-4637.87
-8022.91
9441.99
-3849.3
5043.24
-15814.7
4251.46
2041.5
5813.71
-8218.91
3743.56
231.929
1625.28
5285.1
6875.06
4927.56
2067.31
3734.35
4241.59
-3743.05
17555.7
1694.79
4366.21
1878.66
2521.16
5871.12
993.615
-4387.13
1285.5
-11286.1
-4261.51
-9512.93
9327.76
-7826.58
-2966.46
-18289.7
-4533.46
8168.13
2717.33
11342.6
-10754.6
-1201.89
4231.06
-12110.1
3762.16
9529.55
-7889.85
2694.62
-4177.25
-7567.41
-12573.6
-11176.5
-8060.4
-2821.97
-7511.99
-1177.92
943.364
9148.97
-16817.3
15013.3
-15185.1
3198.3
-14158.2
291.023
12163.5
-3752.24
15407.3
5373.52
5464.24
8164.81
9205.87
8958.92
2564.42
10633.6
-7479.91
5436.18
-10423.7
-440.386
-1484.92
-3716.09
-3944.33
3864.32
4700.35
-13985.3
6108.02
3308.06
-9077.33
-18567
-15006.1
4294.92
-324.733
-355.077
-2021.64
18669.1
2916.43
6418.21
-751.494
-6571.75
-2830.3
713.397
1648.89
10706
8253.41
11130.8
3584.06
-1453.61
989.499
8420.98
-7083.05
15598.1
12861.4
6529.61
-23522.1
1571.11
-3630.62
5480.94
5560.52
15376.3
7697.73
9625.55
-14069.9
1803.83
-5354.13
-1279.07
-7568.44
-496.994
-12615.7
-2102.58
1210.03
-7069.01
13278.1
-4764.53
4892.56
-3261.08
2925.06
7118.07
-7774.48
1279.95
-4819.49
-5688.76
8071.41
-17059.9
2263.1
3000.1
-1761.74
-2294.13
769.301
-1641.39
-4474.72
-6399.91
-7470.25
5633.45
-5388.62
847.838
-4025.96
-231.632
-896.809
-16684.8
21424.9
6495.94
-20.2706
12256.7
-10478.4
-7968.77
7313.6
-12748.3
962.084
-17166
3867.99
-6743.99
-9441.96
-21696.5
-10068.4
13349.2
3193.13
7503.44
15308.8
-2120.61
-804.052
-9915.92
2541.36
2529.12
8270.52
496.961
1091.68
1025.96
4051.09
-5131.35
-10684.6
7189.11
6482.2
13402.6
9451.93
-1164.99
-4847.9
-13773.4
-6005.1
-2431.6
4282.19
-4506.03
-721.118
-2015.2
-5517.41
15379.3
-5210.77
-2721.12
-13560.7
7506.85
327.379
648.523
-8106.3
3400.52
-8233.26
5905.47
999.192
12870.2
-2789.77
-2476.82
5773.64
-6788.6
10043.7
3975.79
7502.1
2556.94
-133.003
-4776.14
7039.11
-877.898
3992.45
2602.76
-1440.68
-8603.27
9566.92
-5448.66
1382.43
-5051.02
-7847.5
9546.07
156.481
-3220.69
-15177
4082.22
-8127.64
-4246.53
2137.67
-9018.67
6382.5
4610.99
-8562.81
-7265.46
-1223.19
227.604
9502.08
11656.2
14535.7
15747.2
-3397.29
-1057.65
-506.142
-11418.7
3444.88
1419.58
-2051.56
4322.1
3362.74
4683.5
-6255.16
6217.7
-11533.8
2202.11
-2888.4
-1817.98
3470.49
450.529
8522.46
2271.34
5120.5
-11058.2
3242.68
-2327.98
-16709.1
3057.53
-4139.17
8111.21
-4700.39
472.667
9111.52
9172.12
6703.64
1600.69
-11208.4
10195.1
-2588
3804.03
-2508.71
-1373.59
6092.97
-5922.16
9488.67
-5150.78
-7063.34
-5575.83
4297.19
12150.1
2935.57
-12260.8
3720.45
143.315
-3029.11
5742.57
10154.3
8131.85
1806.65
-2949.57
11038.6
-20676.4
223.161
-3276.4
10274.1
2598.68
-18258.9
1439.92
5247.33
-8516.34
-6084.44
-4610.78
473.348
-9693.8
4400.66
-7155.78
6932.64
-7285.83
5144.82
5634.29
662.13
-12990.9
-5484.93
-10978.7
-2602.91
7136.44
10004.6
-2358.64
-4670.05
-5721.35
1781.18
-4028.85
14693
2762.13
-477.813
-5056.56
-7392.98
-9555.68
1482.26
-9695.67
15382.8
10898.3
-3220.17
11923.7
3061.41
-4895.37
6034.38
813.447
-7737.74
-6965.79
950.256
-7214.1
5016.38
-1681.44
-8749.8
-7229.59
-4823.38
2974.35
2547.35
891.232
1437.35
9340.45
69.3333
1665.55
11539.1
-2984.94
16534.6
3192.48
3618.63
-7101.95
-1978.09
-182.012
-1345
-3689.2
-7318.34
-1852.79
4292.49
647.513
9081.37
14567.2
-7760.62
12161
5429.81
1519.88
-2402.46
-9381.33
-4673.87
342.072
-8656.62
2112.72
-15202
7608.73
-1033.1
-3038.25
1889.2
-5235.45
3299.35
9044.63
-10881.4
9257.71
5145.15
3428.1
1160.42
8552.43
2685.26
-6174.81
666.231
-8182.81
3519.08
2224.43
2886.81
7155.75
-1801.03
-5116.35
-5335.27
3613.44
-4515.36
15180.9
-4500.52
-1587.17
-2012.57
466.009
7118.23
-1622.85
-446.767
4541.65
-4956.03
1222.24
-1931.35
7053.91
4006.23
4997.45
-400.738
1309.63
1343.95
-4660.66
-565.457
12452.7
7924.2
-1503.56
-9432.37
123.758
7351.46
3304.47
-6790.62
-2050.55
-1281.65
-11343.3
1621.5
-1944.76
-4011.29
-1947.45
2865.97
-8462.2
-3298.05
51.4747
4443.37
6941.08
7224.35
5613.05
17945.9
-9961.13
-3779.15
-3566.71
3436.19
-8958.97
9120.13
-6973.69
-7053.08
1027.3
1898.65
8304.03
10624.8
-2356.18
10455.1
-2272.5
2148.68
7481.47
-18012.4
-18435.1
-9797.63
8931.72
5899.32
-5487.26
4654.86
1588.25
7674.73
6850.35
-7118.72
-23945.7
-16317.9
6330.01
-1795.33
-8093.4
-12494.8
-2052.85
-5108.07
3889.95
5023.34
-9544.51
4736.03
14090.4
7245.29
3935.86
919.31
4371.67
16989.4
-3589.53
2141.8
10019.8
-7960.76
14494.7
2814.2
19344
-6335.27
4918.41
1044.78
-8189.08
8158.67
11189.7
-379.864
-7067.47
429.482
-10309.7
3723.44
-4095.93
-6474.67
-708.532
4700.23
6275.64
3021.8
-17546.4
-12656.7
-1228.44
5447.24
-12517.7
-5700.42
-434.299
-1040.67
17283.7
12206.6
2428.79
-456.31
-8435.43
9911.03
494.516
415.862
-735.023
-20349.4
5863.62
11992.8
15073.3
-1304.45
-11718.3
-2018.66
6441.1
11523.3
-18622.8
-14258.6
-13140.9
3378.07
18409.7
12675.5
3714.11
15895.8
-1496.5
-24420.9
-15413.4
-33887.4
-6252.63
-4379.12
-2622.26
7652.73
939.458
-4427.22
-11054.6
-1561.46
-8363.45
-5444.82
-12495.4
-14101.9
12016.1
3950.6
-5734.02
11099.4
2109.16
-701.033
5968.62
3742.78
9344.08
3161.6
-15755.4
12757.5
16912.1
8298.52
6364.64
9297.39
9732.03
4665.84
-5890.76
-5065.93
2111.38
-2277.09
-1891.48
14695.6
-3714.81
-3572.14
4451.43
-417.395
2792.44
-18033.5
-3687.32
13151.3
12737.7
10047.6
-3160.49
-5980.03
5881.69
-4223.5
-2303.44
-7994.55
-462.864
-1061.86
-6964.99
7552.47
2321.07
-8499.7
11031.8
16697.9
9909.01
1010.36
-20519.1
2094.53
-9372.31
-5817.38
2508.39
2930.44
-16350.1
-6147.48
-11883.6
-7324.03
-9024.11
-8303.94
9391.57
-409.635
2408.13
11713.3
-41.227
15980.5
-17432.2
2337.14
-3607.29
-6395.85
-1383.91
-1408.34
-4879.48
-625.666
-7522.03
-7065.39
-10055.8
-1681.45
-1157.76
2749.38
11804.9
7598.35
932.275
-6450.08
-1005.81
1418.34
3646.97
-7237.44
2338.69
4898.23
114.916
-1365.76
14472.2
-2081.57
2393.37
-5600.66
13397.1
2408.33
2145.33
4874.36
8291.62
2711.06
-152.042
-3252.55
18384.5
-7997.47
11313.4
0.914597
-6551.77
1986.53
1040.12
6641.51
6655.67
-10131.1
-880.303
-783.202
-2351.4
-2556.91
2532.56
196.129
-2139.5
-317.415
2963.2
7428.02
16614.9
-6595.32
-11272
10024.6
-1319.58
461.018
-14286
-17314.6
5370.7
-12205.3
-786.709
-1244.89
11975.3
5244.91
-4860.31
-813.76
-5264.26
5032.04
5695.3
-201.836
6353.03
-10890.3
-11227.1
-4170.66
-4682.92
16244.1
65.4157
-6353.71
-5471.1
-2852.34
6393.65
13114
12242.9
4618.31
-7310.81
1294.73
-8287.64
2275.34
-5506.41
-4975.55
3331.17
6293.29
-3685.14
-4500.72
9325.1
-7457.02
5435.88
-3141.05
18077.4
580.9
-2003.7
-4293.14
-11507.7
8605.42
-866.923
11774.4
11127.8
-5785.84
-9402.28
-2907.23
-5567.4
836.053
-4032.23
1091.5
9403.8
-2197.18
6277.65
-663.159
-16378.8
6316.35
-17450.7
-14075.3
4804.11
-14169.1
-8232.27
-2802.61
-10859.5
7324.06
6549.59
-7428.77
3215.69
-5765.5
-2360.32
-10670.9
7226.58
7644.7
3720.93
7799.15
-19956.9
6392.11
12202.7
2465.08
2498.72
-7464.54
-4806
-1550.37
2468.86
9466.06
-399.629
-9914.79
6047.32
1977.95
-1865.97
-536.042
4368.49
7545.53
-9181.51
4215.77
-12863.2
-1783.83
2666.93
3679.28
10874.9
-1909.27
4071.65
9874.88
4264.41
-15720.6
12899.3
-13254.6
-11594.8
4393.83
-4111.52
-1804.03
-9007.55
4447.34
9164.63
-8042.77
2698.62
2982.51
6360.18
1151.36
11491
18780.8
-2982.18
1852.21
957.074
8447.2
-5686.79
-2693.28
-6651.65
-6819.42
-1981.35
3216.24
3972.13
-13476.6
10440.1
-1829.48
8741.42
-14164.8
-8657.58
-6227.56
-7127.52
5321.22
12621.7
2620.36
510.731
-3334.54
5423.8
3533.64
4409.31
-3028.91
2994.05
2771.46
10905.6
10843.8
4984.45
-22678
3327.46
10727
-1173.22
-5529.91
-3523.55
9064.33
-862.14
-108.291
-981.773
11310.4
-11311.6
-11191
-7709.33
1753.42
-3202.01
12819.9
6325.53
-1923.04
390.637
2827.12
6725.24
-14029.7
5848.18
-7121.79
-4030.68
-10745.1
-5834.79
14050.6
-16668.5
-4527.25
-1625.86
-5912.29
1157.63
3198.51
-4404.73
558.566
-4173.04
6514.62
5217.81
-7867.59
-9186.94
-3726.66
12919.8
9013.42
8922.35
11454.2
-3196.06
7282.4
15146.7
5460.23
-5109.13
-11415.8
-11197.5
168.131
-428.697
-3688.54
9708.59
8715.56
-9016.84
-987.95
-6956.05
-3754.15
-732.215
-1961.94
10216.5
-4093.31
-13526.8
9103.32
886.513
-2574.06
-717.141
-17289.5
2970
8620.1
-12320.9
-6056.67
4881.64
-516.902
16239
-5726.43
-7710.78
-4845.27
5100.14
-6564.35
16910.8
12217.1
-10939.3
8442.16
-7755.01
-1832.55
-15856.2
2249.83
-4980.65
11753.7
2615.1
7447.57
63.6492
-8858.56
8763.05
2455.73
7885.23
-12058.6
-2386.86
2271.55
11837.6
6393.14
-7112.6
-1186.82
1590.2
12247.2
347.733
4281.39
1998.53
10729.1
-9071.22
-10470.9
6335.06
6398.34
5063.41
-1091.78
-4223.32
-9177.11
3843.85
11379.3
-4185.05
-19295.7
14655.4
-2140.64
13739.3
7187.31
-2426.2
-6966.77
-2411.72
6915.4
3458.12
-1522.57
4330.94
18842.7
1450.73
-6365.81
-3772.05
847.412
-556.199
15429.6
1412.73
13410.7
-2948.73
6191.19
3152
-8052.74
1957.33
-4627.23
10152.1
-13179.3
-11246.4
4048.36
-3636.5
-10376.8
10256.7
-15251.1
15917.2
-2792
-8550.74
3209.27
-3899.17
-6030.69
7498.66
-3267.69
18098.2
-17082
8715.47
-12345
6823.54
9678.92
-2294.54
10410.1
-498.731
4372.85
-8999.84
824.99
-11040.2
-4451.54
8526.37
-4377.44
13798.2
-8900.45
1625.43
-11319.2
442.588
-6106.19
-550.483
-1934.57
-1607.59
9511.67
1271.21
-8953.71
-20457.8
-10479.9
16320.8
9264.2
29.4998
-5182.85
4171.18
-3123.96
-20260.2
-18413.7
-822.359
9430.28
-1988.05
-6763.2
-9772.3
-1572.85
2863.08
9224.8
19610
9349.95
-2474.98
-515.504
7871.37
6499.8
6103.72
11916.9
2759.45
6439.49
-9149.48
-9996.02
10950.6
3693.72
-6727.84
-11636.2
-5034.36
3186.82
3856.51
-15203.2
-9434.32
6934.52
4655.39
-10641.1
-3630.61
3342.97
6353.8
-4757.7
-6302.08
7574.86
-2720.02
-3217.59
15768.8
1087.43
6821.53
1176.86
5009.83
16153.7
5499.94
6293.19
-6440.18
3704.04
-5051.94
-7232.34
10642
-4518.04
-8468.84
17345.7
-5780.06
5534.54
-4096.28
-1332.63
-5365.91
-2575.12
819.012
-5985.25
4685.23
-11624.1
-9519.56
14654.2
5345.65
7964.29
22035.4
1190.76
-858.887
3972.33
-5933.61
9026.7
7925.32
11184.2
9798.84
-7930.77
-13017
-5364.41
-4269.36
1158.82
-20955.9
4150.13
3529.46
-5570.85
-11345.1
-3986.81
-2694.02
5381.49
-11777
4089.05
-6385.06
-2052.78
3933.17
-1987.26
-8144.02
-9329.14
9991.88
10656.9
-33.9925
-5549.78
-9087.88
2401.04
-14592.8
-7373.55
6053.22
59.1473
-117.288
1834.4
-902.418
-1920.22
429.906
10826.6
-86.1892
7258.66
2181.81
150.274
-3994.4
-13148
-5646.15
-6615.2
1862.24
-7180.73
-7985.74
-5820.69
-11213.2
-4687.58
3370.68
-9539.7
-9636.37
2838.83
188.042
-2453.83
4362.14
-6043.87
6988.49
-3978.38
7881.61
11020.9
15868.2
3886.1
141.026
2504.72
2618.09
-317.541
5874.8
9142.26
5518.22
-2578.31
-930.965
-10227.8
-939.991
7060.87
-6059.01
-6702.52
-18992.5
-4911.13
-11248.9
2467.19
5.64238
7950.62
-12414.5
-1751.56
4696.62
-5597.97
17779.2
-20311.2
3731.44
-2139.22
-4042.83
3971.97
13853.8
-8699.89
13259.9
-3199.41
-9502.8
2852.25
-7983.17
-1200.65
3135.78
7043.12
6560.97
10448.9
-12107.3
-6699.18
17660.3
5973.45
3277.03
4961.5
-703.992
836.566
-2217.92
-5055.78
4858.26
8559.81
-5269.44
-5493
-1922
11686.5
-1608.35
5700.72
290.298
7304.63
1046.32
-5725.12
5563.76
-13740.3
8117.15
-12460.6
-8826.36
-1698.44
2409.37
6699.53
5772.77
-5140.78
-9110.36
11705.4
-17419.6
4506.86
1558.27
-2792.27
403.725
-16591.5
5972.48
-6451.3
4972.85
4203.06
-9062.63
-1877.67
-17865.7
-1107.95
13751.5
4462.89
1448.33
10847.3
-6051.05
16157.3
7338.07
16391.3
-104.793
2249.79
-1699.27
5435.54
-15035.5
-5108.28
6111.11
2982.11
4147.31
-571.365
-5687.66
-3420.78
-3471.99
7531.8
8241.27
1291.5
-6506.84
11476.7
601.152
-14414.8
9244.26
8425.8
5608.41
-7074.12
-7696.32
-15009.7
482.767
-6118.06
-5021.07
3706.88
-6102.38
554.654
9132.97
-8381.78
-14004.9
-1626.59
-10521.9
12634.9
-9061.9
-12617.7
-5674.29
1166.65
3504.92
1258.44
-1943.52
1992.67
6522.29
9294.83
1003.76
-8354.87
-7585.26
76.6412
3924.47
-1240.85
-10645.7
6387.32
985.072
4146.15
8505.82
-8012.83
7591.07
4798.99
-6380.13
6956.6
-6244.17
-9352.77
5607.31
752.21
-12646.5
-4493.5
1600.08
18763.9
6456.29
6768.12
3428.57
701.591
3530.96
-2384.21
-4751.25
5326.47
-8945.7
-1324.22
12607.2
-2031.3
2258.58
6706.43
-14491.9
-2640.42
-1129.98
1915.49
9060.45
-5095.85
1838.22
-1991.06
6133.21
-3936.37
7575.78
1132.68
8766.62
-1711.48
5036.5
11447.7
2513.94
-10665.8
5133.54
-8579.66
1859.61
-9821.52
14484.3
194.721
1551.86
-7024.38
4550.01
-8573.66
-2825.84
2758.26
18110.2
-2406.45
-457.528
-1763.6
7481.31
-4290.12
-4418.27
8768.54
-10572.2
7290.69
-8259.4
6052.4
-11078.6
-4864.98
-3857.68
-5809.39
-5108.48
12154.8
-8718.28
2940.29
-3084.92
5231.08
2905.26
4116.71
-365.876
-147.973
-13309
-3872.97
-1686.51
2897.03
-3462.5
-8050.8
-738.963
-6066.41
-1893.7
7207.8
1887.13
9759.01
8912.54
13084.7
-4751.09
-3737.84
-5443.62
-9157.73
-4060.93
-11643.7
-12452.5
2272.84
7478.29
-4652.32
-5398.32
-10019.2
-4210.14
-1808.54
-9492.76
3741.16
-2970.46
-2692.31
12972
-4860.95
21008.1
9138.99
-6014.16
11300.9
-7937.63
-4067.4
-1139.96
-7050.49
10971.7
-14519.5
10959.9
-4492.01
4980.53
5494.39
7152.28
2917.86
-15013.3
2365.96
-1433.35
-2262.98
-3241.05
-1110.79
-4707.04
9753.19
2152.29
-3057.8
-10393.4
7778.59
-5338.73
-2022.09
-4783.91
8793.76
10825.1
8493.33
-3616.76
9960.69
5363.51
-10065.5
-5480.81
2335.88
-18893.1
-4795.45
4162.86
14371.3
3237.19
2004.27
-13375.2
-8592.05
20014.6
-3991.99
-6483.19
-6763.11
-4013.58
-4969.94
2877.08
-2786.49
6379.53
-4792.04
-8653.75
-20875.2
-5601.75
-26702.3
-7893.05
227.876
-3512.81
2004.83
-7924.12
-8076.52
-19592.7
2449.8
4421.86
9843.97
10876
7046.34
10240.8
-5826.6
4909.36
2709.19
2630.33
-4179.23
4765.5
-10091.3
-3970.35
1087.49
1206.87
-1576.93
10398.2
-6718.15
-2472.29
-2873.28
-10800.6
9049.99
2853.68
-13669.7
-9656.88
4689.3
-9503.66
-26.3134
785.66
-7748.21
14892.4
6794.12
-7039.88
10759
-9893.07
-7059.28
3332.26
6350.34
16816.8
11198.5
3847.9
16250.7
-10191.4
6226.6
-3927.52
-4065.17
3244.36
-6633.3
-1569.84
7363.39
3770.82
16390.4
-694.083
-16036.9
-4173.79
-12932.1
-9655.12
7831.08
1932.58
751.666
-9389.45
-566.958
-3512
13835
-2924.75
7990.8
6487.72
-12294.6
10309.7
-7947.87
8739.63
3467.88
3913.85
-1021.45
-7527.57
-3587.25
5464.97
-4586.45
-4595.03
-555.78
-4733.22
3442.08
-12769.4
3945.13
6130.29
-6498.41
4910.44
-8749.64
-8425.03
-6049.41
-5212.47
1227.63
-6274.24
-3704.31
17075.3
15076.5
5601.26
-13904.2
-3425.21
-9026.74
11843.6
-996.679
-3929.63
-4314.21
-4292.13
1806.81
-15396
-2059.21
254.546
3128.54
2316.65
-4964.25
6575.49
-6200.71
463.664
5841.26
-3810.75
5766.45
-2880.47
14827.7
1076.96
-3003.04
-1343.55
526.587
887.257
3505.68
-10440.1
-148.943
-1512.88
1972.22
8086.86
-8041.61
-1537.46
-4473.91
-6726.81
-422.075
-7224
-12001.6
2653.45
-7557.77
4708.56
-10637
-1932.22
-3994.93
-1235.42
770.798
1093.45
-10046.1
-116.283
-2655.57
-1216.08
-4843.44
-5298.12
8453.52
-5813.26
-10042.9
-2174.2
8101.13
-397.219
-7541.25
-521.299
7277.58
8745.66
935.851
-10748
6016.57
7609.7
2365.64
-1833.78
-11485.2
-201.791
-3583.87
3122.72
7475.3
13968.9
-18227.4
-852.382
5818.96
20504.1
8993.7
-1224.25
3756.68
-1867.26
-7350.45
-5069.31
-7726.9
-6803.05
-8717.19
-786.094
8643.53
-3423.9
3176.82
-240.32
-4229.75
-14781.2
2836.2
14833.9
11724.8
8241.23
-911.883
-3386.41
-10986.5
4336.06
3597.88
2032.86
3158.78
-6559.8
-2409.49
-4940.36
-11501.5
-1376.52
-1398.72
-12219.7
-8228.4
12848.2
-7026.49
-7505.04
1386.7
-5573.29
7478.93
-2645.95
3356.95
4202.27
-7410.45
-1490.14
-548.944
-7325.89
-11843.2
-10918.1
2241.79
5349.84
18934.7
-4327.15
565.09
-6852.6
3740.78
4425.14
-5244.24
629.043
14168.2
-3904.29
-1572.84
10283.2
-1436.05
7595.54
-1849.97
13835
7160.12
-5596.43
-647.44
7673.74
-1267.9
-8231.01
-5168.62
3370.09
-5990.35
-1671.75
538.802
2908.43
713.352
-3102.41
-1147.79
115.086
-9954.75
7587.4
-2506.19
-3863.48
-9622.22
443.533
7252.16
1482.33
-923.443
8075.68
-3921.6
11568.8
6371.57
8643.17
6843.31
4655.28
9489.7
6156.78
-3948.11
-9405.28
9390.05
7141.48
-4653.88
7322.74
-2960.16
11452.8
-6616.14
-1981
4984.68
5316.04
2560.59
-1999.25
-6268.82
10007.1
-8525.51
2074.92
-1439.77
-361.729
-32.3559
-1853.1
-2333.87
-7138.12
12122.2
-5416.62
10555
-6712.75
6672.79
2033.97
-10060.4
-10598.8
-7325.81
1647.65
4172.87
-5568.08
-2132.83
-4359.2
3120.22
-297.119
8591.01
625.536
1135.35
-1744.21
-577.428
1670.16
4500.46
-12174.4
5129.54
4642.55
231.119
3800.99
-4673.27
-10006.6
-4434.63
9117.93
7163.7
16090.5
1383.82
4580.73
-3967.63
3592.29
-10468.8
4086.17
-8180.11
-3088.79
19654.8
-3217.58
639.221
-677.251
8623.87
4715.51
6348.61
-1387.96
-7914.95
7489.96
1009.91
15541.6
-9526.79
8558.59
-6658.15
11345.1
-5930.69
-1043.42
2214.98
-4712.36
-10163.6
3561.39
882.772
6808.81
-3571.52
4152.29
-2903.57
-4049.97
5687.39
8012.35
444.518
1674.39
-11060.3
6263.45
-3609.73
-4943.98
4712.3
990.796
-5059.68
-928.133
2994.76
3317.18
1298.95
259.87
-1212.98
-1600.39
7689.56
18788.3
17032.5
15346.1
1686.53
11275.5
-7902.22
-10920.5
-3793.58
-5608.9
536.853
-17685.5
-4737.24
-15749.7
6367.56
6764.54
1190.73
-3035.21
-1073.45
-2632.1
1160.57
-7238.73
-7136.99
4054.63
-4206.27
7596.56
-1710.46
-9226.26
11232.8
-594.737
-1386.89
-4662.25
3905.96
29079.6
-857.804
-9677.63