# vtk DataFile Version 3.0
PFC simulation results
ASCII
DATASET STRUCTURED_POINTS
DIMENSIONS 128 128 1
ORIGIN 0 0 0
SPACING 1 1 1
POINT_DATA 16384
SCALARS psi double
LOOKUP_TABLE default
-4723.77
1303.16
9224.3
-3389.62
-14432
-72.0669
9683.53
-2021.09
-6206.61
-11524.5
-9473.15
-3121.76
6532.64
446.983
-490.574
5508.07
-7661.62
-4789.77
2919.37
-10895.6
3704.25
-14364
-2181.09
5386.57
1115.34
-10793.9
8761.87
-4118.12
-7831.14
257.641
3497.27
-3481.59
6733.91
7434.35
1346.18
656.863
7899.05
7050.26
1465.65
24051.5
-17985.7
4881.57
20379.2
-2138.9
4507.4
8700.64
-2010.96
6326.75
571.409
-13502.3
7814.26
-6874.78
-4370.32
13473.7
1612.61
2012.73
-2650.9
1588.56
5028.85
2118.77
-5514.84
1716.05
-5218.45
7521.15
-6286.05
2033.39
-4651.34
-452.854
-19854.5
-7320.49
-11223.7
-11119.9
3688.97
2162.7
-12384.4
-3069.45
9316.22
-147.262
6318.66
11072
-10226.2
-6776.46
4215.27
2233.23
10893
14469.7
-3831.38
-3686.07
11486.7
-10256.1
-6650.8
-1840.91
-22719.6
4591.98
-688.693
-16742.2
10612.3
-2262.81
-5129.98
-6079.27
329.95
-13353.5
10813.7
11721.2
-15927
-2338.32
-6903.81
1609.67
-14340.1
9642.18
1199.64
-989.472
503.429
-12588.5
-864.186
5557.98
17828.2
76.3262
7712.14
-5561.55
6825.56
-1386.3
-5769.94
-3432.46
7159.35
-2357.33
13411.8
16479.4
-930.734
6907.39
-11640
12688.5
-1886.85
8530.86
-3881.04
-1301.09
-13138.6
480.894
6724.64
-1057.05
9312.83
5327.54
-5208.05
-10712.2
670.193
6221.11
-4630.62
1349.21
7449.19
12119.3
10246.3
6715.97
-3651.35
-15602.5
1081.79
8253.33
2020.24
-137.601
-8410.38
10812
-12946.2
3419.38
-11411.9
1033.67
991.734
139.022
-1201.76
121.841
-4877.86
-3236.46
-1573.91
-7088.73
1546.24
-1756.32
-13295.6
9678.58
-2625.14
-4790.01
-479.074
-8706.83
-8047.66
9821.91
-237.724
-1013.98
75.5267
5415.71
-1661.99
2232.66
2904.22
2083.54
1233.24
-6135.29
-3775.04
3771.51
-7821.08
-16997.1
-13091.5
314.086
-5786.05
19470.5
-5738.52
11381.7
1377.41
-4356.99
-10732.5
-4697.92
51.9328
-3169.39
12463.6
-9.44861
6052.91
-3142.62
6486.78
-9055.96
-9568.36
-5623.28
11106.5
11298.1
1457.66
-4260.25
-638.255
-2053.74
-11310.8
-9322.44
-17976.2
4316.71
-5635.45
-14037.5
8301.86
4307.91
13884.3
-8469.76
-3041.26
-13013.8
4875.05
-1064.32
-4955.23
11046.5
873.533
12907.5
3562.74
-6143.08
4919.59
-7299.68
5314
6948.49
15178.8
-17267.9
10742
-901.515
-1411.96
-1848.15
-9061.03
1355.75
5049.41
8882.32
-8759.62
2746.83
-3951.12
11781.3
12922.3
1473.19
-16093.1
-5655.27
6286.18
-4259.82
-3336.45
-11926.5
-817.334
2095.14
993.443
-1838.89
8810.75
-8427.01
-422.944
5739.95
-7774.94
8299.56
5931.71
1511.75
-27418.2
11956.9
2575.78
-10108.2
-10065.7
3645.28
5519.2
-2528.99
-10933.1
-8999.1
10188.3
-16506.1
8434.42
103.155
-3328.43
-15258.3
-13936.8
8500.84
16047.9
15928.2
-2285.57
-20618.2
2192.65
-3272.54
2702.11
-4445.67
-5076.21
6392.29
-2844.87
5805.23
27865.4
-15465.1
-821.073
-7354.89
8077.43
7624.19
-715.698
10344.4
-8899.41
-6485.72
18779.4
12151.7
-758.904
-11135.5
18616.7
19284.9
-2375.68
9735.18
-4857.1
2368.58
16981.3
154.202
4395.41
-4957.38
-3469.29
3188.44
-4735.35
-5208.46
4130.43
-12842
-15808.3
-13153.8
24143.1
9860.46
1666.97
4747.03
-4846.12
-1260.68
-5612.38
5173.12
-9978.93
-14195.8
7419.81
-10676.8
6490.25
-10909.5
-12386.1
-282.424
-9269.32
3658.86
461.746
-664.41
-5685.5
682.632
-1619.99
5143.09
4121.33
-2320.91
-14602.8
-5957.7
22676.6
-9860
-6711.49
-10998.7
5946.38
26392
-11555.5
5125.3
-10140.4
-2452.76
4019.36
8879.73
25020.9
1554.46
1347.11
754.631
-818.367
-12273.6
4342.33
-8070.3
3024.77
2020.07
-4657.49
-8940.25
-8241.24
-3100.42
-11003.4
-822.098
-12601.6
2792.33
-18405
9384.08
8130.91
-6148.68
5392.72
-8518.86
4353.13
-1162.27
-2452.78
-16824.6
-3115.42
-9297.89
532.237
15726
-2434.03
1034.37
4633.19
6167
7456.89
6398.28
12679.2
-3321.27
3216.18
-9520.1
-2868.84
2338.72
2807.67
-22662.5
2599.92
6696.28
-4610.63
3632.28
-1205.47
-6880.64
4855.23
2723.12
-7287.05
2701.27
-4905.54
-10921.9
2285.39
4330.25
-6738.46
5083.22
-3924.55
106.04
-3739.96
-3356.21
4641.11
-808.794
3010.74
-15.5633
16.779
-8062.71
-8330.52
-4206.34
6693.74
14659.1
2881.35
16100.2
1229.07
-6791.98
2698.5
4837.21
-2955.88
-4791.41
-14304.8
-5837.19
3295.86
6774
-21453.1
-9929.98
760.35
-1039.81
7515.64
9039.71
-204.401
1145.42
291.434
-3063.18
4855.6
9790.79
-5026.9
1484.92
-374.192
2068.56
14514.3
12885.9
-4643.26
10663.5
-4102.33
6508.61
2814.63
15905.2
-8120.06
9207.33
4116.89
4457.85
7092.23
6649.56
3682.17
6580.22
15718.3
2777.11
-3789.57
1500.45
-2747.63
2136.87
3141.21
310.422
11806.9
13592.5
-9049.46
7747.28
4589.01
-4776.44
-1318.14
16407.9
-8940.72
7023.51
7243.33
-12531.3
1967.48
-2120.65
7065.84
13077.2
-7374.67
-5007.7
3862.56
-2142.38
1899.01
-8176.84
-7769.05
3963.51
3652.27
2020.4
-4556.79
-6507.66
793.597
-734.611
-3191.96
3517.91
-3462.05
-18880.3
1265.83
7181.22
13200.6
-316.859
8551.81
809.203
7787.44
7550.07
-5021.52
10789.2
-12525.6
-5684.21
18429.7
2056.14
-2795.28
-5072.81
-2127.92
-1458.4
1596.46
12123.1
-1422
18778.9
14234.3
-598.256
-373.438
12122.1
14759.7
-13664.9
2276.03
-6816.82
2570
6117.66
-8035.37
10764.9
-1552.14
-16725.2
-4257.15
12159.2
-366.253
-6166.17
131.863
-13235.4
-1154.75
4619.35
4501.59
4488.19
214.667
-11011.6
7689.57
-3904.16
-3209.56
2812.9
10780
-7436.04
-2247.35
8593.89
-7453.27
16788.5
9048.62
703.823
-8949.14
8365.94
5794.38
-3560.18
5622.6
-3092.67
-18728.1
9643.7
-9150.96
4814.48
-1171.74
-3634.91
-10066.5
-1849.52
-15883.4
-7742.57
6114.8
5677.21
-3926.32
478.943
-4887.31
-12020.2
-14329.7
8433.13
-9889.01
3671.92
1225.85
-16423.8
21893.5
-4649.35
774.5
-2099.72
6347.34
-10067.5
9483.05
11795.4
-1588.49
-13709.1
1303.04
1094.92
3849.87
4917.94
-9498.15
9781.85
15677.9
12135.5
-1612.19
14942.1
6702.83
7539.8
7768.22
-5454.02
-1829.7
14210
-7540.93
-12299.5
-3245.37
1770.94
-1601.81
-682.751
1520.02
-264.105
2574.59
-276.275
-1689.23
18835.7
-4858.47
-8159.97
-5079.08
-12919.1
14022.1
16661.1
2540.89
-2161.61
3788.61
2175.62
-9786.59
6009.74
-747.228
10290
-1603.7
1287.48
18077.5
-6863.73
-3262.95
-13136.4
-1075.96
-2474.08
13034.3
72.5577
-8492.37
1235.81
5075.59
6624.96
7099.27
3625.81
845.907
5143.71
965.728
1148.97
-1505.62
5307.31
-305.71
7772.61
-10979.5
-6762.76
971.152
-4831.15
-3837.74
2807.66
-3432.68
-6094.98
-3594.78
-4932.46
3327.54
-5973.25
-10316.6
-15307
3188.99
-3000.31
-8776.44
1050.6
-8388.69
-5006.53
5349.08
2432.79
-39.4602
-2201.93
9380.87
-4427.72
17628.3
-9009.57
9833.96
2267.04
-4901.63
-4117.78
-3237.92
-8902.25
-4718.86
3562.83
-6389.96
-2414.26
17392.8
-359.67
-1134.8
349.933
971.39
-10323.5
1638.71
-9989.55
7790.84
-3221.77
192.095
-17400.5
1295.92
405.366
-688.804
1285.06
-12861.6
7330.99
1728.16
2214.16
5563.45
11322.3
-2258.82
682.422
6857.53
6714.05
1655.05
-7774.85
-8382.03
16155.7
1047.8
-1247.79
-2013.26
-12279.7
6956.32
2595.89
-8391.98
-5495.89
667.978
-9511.27
10718.6
1579.5
-2545.73
-40.486
-11809.5
16670.2
12240.3
-2009.26
-625.151
-2926.97
-379.906
-5305.58
3263.57
-12979.1
8840.21
-13541.4
-1790.89
100.109
-3005.49
-4101.31
8084.52
7597.26
-5898.3
-1035.38
-7608.6
-11491.5
9071.33
-13766.4
-4931.86
-699.537
3524.3
-11633.9
1445.41
65.3412
-4072.44
38.5993
-18261.7
3990.87
16844.9
-7214.14
2388.98
12471.6
825.766
-4478.63
3279.85
1096.89
6758.08
-875.531
-12983.5
-1727.15
1397.35
4785.08
-12031.7
-4550.39
-8760.94
-14585.5
2262.47
6266.03
-7296.47
-104.887
-15167
9097.48
2130.34
-8382.43
-4073.63
9252.55
-12140.2
-1706.75
-508.113
-8190.69
-6798.27
-2456.82
10321.4
1118.74
3630.29
-5155.24
-5564.03
1159.06
-6870.88
-13982.3
-6452.06
10966.2
-3166.45
2511.55
-2519.41
16812.8
4724.58
-6440.41
-6588.29
9676.46
3319.87
-3575.85
-7232.45
1596.63
-2921.73
6234.43
5545.94
1593.85
-6751.61
-3940.78
-5087.9
7221.84
7794.1
3676.34
4964.7
7338.81
-4974.34
670.893
4345.03
9530.23
7020.44
-7934.87
13185.4
10737.3
1626.79
2752.28
732.709
-3650.12
3144.88
8718.95
804.099
10004.5
-6189.37
12538.4
-2511.72
7263.34
14115.1
13860
-5507.38
1060.18
14931.2
-4690.89
7329.78
-928.386
4094.37
333.511
-3673.35
5556.45
2156.95
-1234.94
-2652.5
4271.81
-38.2763
-2101.68
-492.199
-10410.2
-6227.87
-2497.55
4082.51
-1235.56
-10707.2
1392.2
3948.32
-697.22
-4236.66
-13292.3
-4531.25
13018.6
1344.13
-507.172
4075.66
-9686.89
-11425
-4119.37
-2621.23
2952
-5253.59
-1292.09
-12804.5
1294.71
7431.33
4099.69
-9337.21
467.666
-1912.49
-12564.4
9735.74
-8224.54
-6300.28
-4129.96
-1226.42
10776.8
5262.48
-7048.18
-8870.14
-2415.12
653.103
-438.502
9825.95
7283.83
6557.46
-2233.57
-606.96
-877.661
6752.83
-11221.7
21747.3
-1864.86
6308.27
5908.08
11119.7
10539.7
-4383.69
4636.58
-8434.02
-3204.89
-4989.75
6277.1
-19367.2
-9107.5
-6917.88
61.7409
2488.61
113.264
5577.11
5004.25
-1409.4
5777.53
-259.202
-18898.4
7131.53
-2317.12
3759.7
3057.16
17347.8
7728.35
5429.68
3435.31
4704.85
3353.93
-7285.95
-2030.16
2796.81
-7562.03
6831.83
-2953.53
-6418.61
-930.964
-1248.31
-2286.24
15766.2
-6510.19
-10411.5
-8773.17
-9746.7
-8351.98
10210.1
7536.23
-9680.78
3541.22
-2703.16
-439.577
-3909.5
16480.5
2641.75
11230.4
-9962.63
576.343
2973.38
891.217
3105.22
810.69
-4382.12
-800.517
-3067.73
3022.27
17912.8
-2177.29
-5840.45
5332.54
-10586.9
-15906.5
-1229.24
-1984.53
-4549.23
9334.99
-4929.71
801.034
-5273.69
-1152.07
3392.87
4995.92
15901.7
-4931.01
767.535
9843.06
28160.4
-12390.2
-21152.5
11577.2
-10624.4
12112.7
18470.6
-6576.83
4175.47
1651.18
996.674
-19209.1
13928.8
24417
-689.166
3833.02
5488.14
-11248.2
-11977.2
1449.17
6675.46
-706.321
13753.2
-2943.62
-6584.96
-3934.62
-8119.86
22258.9
2250.45
7330.62
2293.98
-6992.23
3283.26
-7375.02
-4073.41
8882.1
19288.8
5035.54
-7146.13
-19886.1
3746.77
3251.78
-1502.46
-9872.45
-5806.34
4490.56
-10897.1
-8201.43
-4618.18
-11313.9
-6357.88
21150.7
14612.5
9263.03
10247.7
-11543.9
-9266.99
-3909.05
2756.28
3808.43
9570.57
3417.53
5948.64
241.131
8988.78
-3064.26
-6684.8
11387.7
-318.775
13535.9
-16261.9
468.052
-4132.98
-11609.9
-4829.54
-905.031
10418.2
-8358.62
491.505
2216.51
2458.85
3471.06
5558.82
-11556.8
9031.5
-1616.13
2034.3
8162.16
-6528.38
5898.27
-15388
-7561.82
8703.75
10538.7
9223.06
5867.98
11280.2
-962.426
7840.31
-13504.3
-371.145
3326.89
4442.97
3512.92
-25652.6
6606.95
-8797.67
1510.07
-2744.64
11166.7
5135.13
-724.116
-7126.38
-6446.08
-14552.5
2231.94
-10073.9
-8391.51
-14692.1
3677.86
5525.96
4222.08
-7185.59
1039.26
4202.2
-1023.96
-3895.68
294.967
-4649.82
2499.98
-3551.3
3000.12
1879.32
11512.5
7084.41
-7783.75
-4715.67
3094.82
6540.71
1659.84
13689.2
7164.87
-1399.2
-6005.62
11612
1271.58
-736.577
-9631.01
-5641.29
-3356.8
-10383.8
-1192.77
703.582
9095.07
-3957.4
9959.96
-5823.25
-896.426
-4135.67
-2992.59
1670.15
2802.36
11101.3
5940.42
13700
7625.05
-4060.13
-4108.75
2082.98
-117.802
11647.2
-15343.3
7276.78
-1059.3
10062.5
1560.44
-5931.92
-5495.6
1492.75
-1588.63
-9425.81
5431.58
-571.252
6384.31
-2027.66
1825.59
-5642.38
-6772.46
-10861.5
-2759.78
-845.021
15539.8
8767.21
7972.38
-6533.82
-3071.07
-2334.94
-3832.92
733.098
3407.8
-8242.35
2821.88
5767.62
3795.53
3515.29
-609.098
904.659
7903.78
-7938.78
-3112.79
-8734.83
-3583.96
-1979.63
-151.273
2437.92
4842
-7131.6
562.858
-1551.08
-3143.28
7347.75
594.026
-5472.86
-7260.66
-10384.6
-18720.7
1375.28
-6620.74
6266.71
-4539.49
8441.86
-253.151
4824.88
-5601.19
-6707.62
-12302.5
6867.89
2580.54
-2049.36
-6015.91
-10011
2481.11
-9809.91
-6357.7
10696.1
14190.6
14490.9
697.563
18487.9
1091.99
162.771
2380.29
9874.49
5555.63
9183.06
-11489.7
3336.79
1255.07
8330.96
-2377.34
6679.77
-2643.93
6058.42
4496.09
-3923.79
11088
4363.66
12474
-1988.72
8971.12
-868.991
-1856.17
3036.33
3187.25
-11683.5
7642.56
-10382.6
2516.36
-5424.93
-13011
-14.274
-822.318
-4023.33
5375.75
13152.5
-1070.68
-8153.1
-2879.59
-3970.21
2522.67
-6316.12
1904.18
-1709.19
-4798.82
-11000.4
-17681.8
-1736.8
2121.14
-11098.4
10649.6
-3917.6
-1605.9
-5304.77
6277.21
-2502.54
7784.45
-18201.8
-535.987
12124.5
1544.08
-3580.08
4810.43
1095.33
4142.35
2763.52
2299.94
12930.4
12865.4
13309.9
5323.84
5067.65
2497.93
5689.54
2128.14
4179.2
3650.03
3151.98
5415.93
12974.2
5367.42
-690.879
-6667.95
-6184.57
-6796.16
3929.69
-1766.15
-10821
-2433.54
-2206.08
4862.94
398.443
7583.93
1929.27
-2251.26
-9157.26
-10277.7
8948.54
4198.32
8330.43
-2476.14
7389.39
-2591.01
-11015.8
-4282.52
-5123.72
2781.09
6615.32
147.049
-12412.1
2685.13
-11688.9
1949.16
7295.09
1206.71
9850.12
5174.04
-7306.71
-16319.1
-9732.79
-2852.19
4032.32
8226.46
-2410.81
3607.78
-664.926
261.145
-6344.71
5713.46
6681.85
15490.5
2506.13
757.605
-12776.4
-5487.36
233.274
3577.98
3669.7
5709.22
11880.2
-875.146
-2767.28
-12210
1003.12
4608.43
1463.28
1231.88
-10504.4
-3851.81
-3309.9
11956.6
-70.7583
6949.25
-377.727
3367.61
-7725.75
-3383.25
-8320.35
-5061.75
-2873.69
8426.09
5346.51
-6403.49
-2331.16
1928.86
-9127.72
3524.69
10284.4
5689.79
9361.86
7151.06
-7489.83
-2549.88
1448.44
7364.09
6430.35
-19224.8
-8429.44
1298.31
-8742.61
-5932.76
-3445.85
12558.1
10086.5
1752.67
3271.42
-6278.69
763.823
-187.676
-10154.3
-4073.52
4800.43
-11459.8
-4081.33
-5894.89
-847.666
11487.3
9447.87
6454.91
2446.97
1643.3
-4364.36
209.874
-10310.7
7432.26
4534.06
1661.98
-5401.1
1239.86
10330.8
-1205.24
7774.84
9999.75
-1699.12
4649.74
10265.3
-5389.62
8824.36
-4525.22
-1375.9
2534.67
-1026.16
6380.49
-6230.11
-8530.16
-5400.6
169.165
-3088.92
-7434.37
3801.03
-3275.16
20407.1
7660.1
-5509.91
-2710.09
2370.11
-3173.72
4106.49
10585
-69.4268
4014.75
44.5898
-9777.62
-13291.8
-625.533
15120
7006.89
-5124.31
12052.4
-6855.98
1744.88
10363.5
5564.84
4372.12
-8849.61
2613.06
1426
-13671.1
-10318.6
4713.64
-1100.68
-6346.11
11008.3
-7071.2
-14729.3
-14139.3
-1169.56
6326.25
3558.71
5332.08
7870.86
3475.15
-10514.2
-7227.97
-1020.07
-841.736
-2085.21
6711.8
-4773.08
-4491.72
-4724.02
-1352.17
-9988.06
5220.21
13009
10814.2
-955.298
7906.3
2543.6
1482.18
-6573.77
803.927
10839.8
-5446.22
-1499.4
8385.23
-3849.73
-4766.17
14484.5
12029.2
-6521.31
5065.96
-8989.3
7976.96
-7218.48
-5491.7
-2804.51
-4757.59
-3168.01
-5792.52
-2763
-13935.6
-3789.37
-6644.03
-9350.04
14101.7
3251.59
-3999.77
-1771.35
14132.8
21541.4
5780.23
5924.95
2592.3
-1591.21
-4429.54
6603.42
-14659.9
-2644.96
18813.5
-388.283
2713.14
-2741.09
5512.78
13364.5
4402.54
16101.9
13886.4
-1640.57
-666.661
4521.59
900.341
711.164
-2279.68
-11053.3
558.695
-4384.9
-112.646
1579.59
-9478.94
-4266.21
3333.97
-6614.62
2150.43
-4138.28
-3935.52
-7485.27
6498.55
-1061.44
5874.35
3460.34
17677.6
-4908.87
3260.6
187.421
-3870.17
2577.59
-1784.69
-16080.8
5311.69
404.458
-11149.9
1178.02
8122.55
341.753
5034.38
-12014.5
-1064.69
-10918.9
-2443.72
7642.67
-865.545
4410.12
-1331.48
9782.01
4776.9
1904.92
-9888.1
-4339.56
-14006.9
768.721
6052.09
-13318.3
-9304.7
6019.96
-4791.61
-15148.7
-10149.5
-3160.18
4399.12
4003.06
-3995.09
4212.27
669.593
-1271.2
193.966
-7650.16
1164.42
5930.58
-7186.88
-6180.7
3163.43
11058.3
-5380.71
-1216.75
-5412.43
11170.7
1616.25
3359.78
-4871.23
-4689.06
9336.08
1469.29
-3691.18
1450.45
-2745.37
3775.71
-9030.87
-6820.88
-13109
3420.03
601.015
3703.41
2957.5
6540.91
81.9361
1964.32
-4769.15
5371.33
5071.11
-2484.02
8404.49
-1429.49
-1160.5
-1097.45
2507.69
-13806.4
-14108.3
-12703.1
9686.08
-1228.44
-5970.86
3064.54
-3994.04
-3940.13
251.104
-14212.1
-2433.41
-5164.13
-237.831
6916.43
325.065
7939.45
4035.54
291.084
-6003.95
-863.149
-11880.2
7877.73
11571.9
11956.6
1134.57
-3424.24
1938.44
4965.29
5083.28
2192.23
-4821.09
8684.22
-5088.5
-10653.2
-4014.1
-10196.2
290.656
69.7119
-2956.87
-5223.22
-5023.03
-4826.02
-2899.04
-12429.8
-14651.7
759.815
11634.5
1887.98
677.226
-6160.73
-4459.92
18.3567
1522.99
-6261.24
-3242.81
-1654.28
-465.742
-10195.8
5338.16
8954.84
-5551.64
-2941.06
-11961.6
4036.83
9090.99
4634.76
1645.53
3470.32
-1618.57
4889.74
-673.876
-290.87
-3392.73
-7158.59
-8807.26
-7583.35
-1274.99
1423.5
-12996.6
-11270
3484.41
-3532.56
9250.4
-2084.3
-6632.77
-1506.72
-3500.89
-324.145
-8388.26
5911.17
8013.48
3052.83
-2407.03
-1398.11
8176.08
12849.3
6339.75
6049.14
3751.38
-3199.94
-4695.32
7506.64
-3762.99
1747.39
-684.759
46.8509
-2860.14
617.963
-4245.46
-6672.08
11953.2
8074.28
6225.21
-7029.1
5664.38
-1887.44
8510.36
1368.47
-832.263
-2851.67
-5496.66
3828.24
142.996
-4525.97
-7768.84
-3335.09
3888.62
-4408.52
6967.35
-7819.98
-7310.32
4316.44
12190.4
7949.96
1025.02
5674.16
-1336.49
-2939.36
-7786.06
-1590.47
-7505.58
8053.72
-583.408
8646.17
-9357.45
8114.41
548.006
9666.48
-6676.06
12927.7
-2761.77
2519.44
2578.09
-7426.91
-2172.41
-2504.27
-5426.26
-3620.68
8777.61
-11190.5
2638.13
-4016.46
-12745.2
-271.374
-8341.53
513.496
2664.21
6982.68
-1759.48
-724.932
-3206.98
-12597.1
899.538
-1613.68
6869.8
-1145.78
4217.29
2418.16
-7387.6
2109.28
-8672.12
323.22
8779.29
9348.38
16400.3
1548.61
-3668.27
-3012.02
547.4
-5311.34
11784.9
-4004.81
-8533.71
-3525.39
1569.82
-7637.61
-476.406
-5471.24
1973.04
3113.54
-6029.91
7897.41
2692.43
1450.57
-15212.3
-1260.36
3959.34
3642.69
-5027.11
-7878.83
-2458.05
13471.3
1022.96
6585.53
-6129.69
-1721.04
-4768.02
1763.04
-1890.35
5899.26
9278.81
-1231.58
1176.57
-7057.81
3004.68
-8045.67
3436.36
7660.77
9462.4
1425.17
4738.1
-5115.01
-9985.28
449.009
-4120.1
3271.17
-116.506
-7838.1
2009.73
-7914.53
71.6822
-6.18916
-4898.72
-7120.76
2584.17
-3108.33
-1816.56
-5131.38
-17191
-4908.66
10165.4
3873.99
4820.31
-3636.46
-7230.23
-3474.74
-7701.24
381.208
-9247.63
5041.06
-9787.94
2404.58
-5045.08
-7069.73
18389.8
2232.33
614.869
2372.09
7357.79
1281.39
-5041.3
-55.7433
-8472.68
-2109.14
4491.87
3361.15
-5961.95
-353.96
4941.97
-3195.89
-213.233
4624.17
-7639.49
-2616.57
1832.26
12763.5
544.029
-21724.6
-7125.82
-4607.55
-3536.69
-15284.9
8518.81
-7335.28
-8571.63
-2953.52
-3633.87
6692.52
6161.97
-7456.53
22756.9
1171.46
-6719.16
7656.48
11557.2
5880.01
-8867.57
-720.723
-13273.3
8648
-2717.88
-11058.2
-1741.61
10622.9
1210.46
-4985.45
-3005.09
5622.61
-2145.53
14085.5
-7699.67
4220.47
-3488.65
5795.73
9002
9433.2
-10042.6
-11662.6
4768.99
3084.47
-4122.24
2458.58
3067.79
-20414.4
9292.51
-13059.4
13454.4
2752.31
10220.7
-7515.19
31491.4
6913.65
-6518.08
-3671.96
1935.8
-3997.85
1960.99
-2605.71
-10133.4
14649.7
-2109.69
4229.34
3092.32
11823.6
-21519.9
9642.21
-415.411
-5051.17
-1325.55
-5899.24
-8963.74
11461
-2461.6
-1045.17
-2455.86
361.813
-17760.3
-1107.83
6025.56
-1834.81
842.166
-2544.78
-6943.96
3957.13
7491.66
4126.08
1138.94
15740.5
-10996.5
-4946.97
12452.4
-12769.7
17618.2
-4508.25
14222
-12656.2
12284.3
-5055.84
8399.68
-6148.19
2278.02
-9139.15
5199.08
10222.3
-16197.8
9166.91
50.5535
1126.32
-20996.6
1228.68
-22082.9
26280.7
-13409.1
-8780.3
11773.4
-13563
-7126.96
1013.92
-6928.74
288.808
5737.74
4020.73
2145.18
7013.21
-3204.4
-2391.8
-3330.5
8205.07
1965.97
6374.62
10217.4
759.195
-3822.85
-4179.23
3660.37
-10621.2
-1536.47
3325.83
9097.84
1267.59
2848.68
-4559.58
-7947.16
2047.65
-1408.43
-1666.38
-3592.28
8562.75
-3980.76
-14576.2
18.5409
-3845.98
4924.72
-5166.36
-5232.58
-7660.74
695.963
2980.24
-484.178
-7244.53
-5176.96
-6999.16
-1298.64
720.359
-1673.77
-3249.51
3512.46
8564.9
705.265
2885.93
-4749.22
5844.35
-5589
11567.4
2569.33
-2386.7
-11127.9
-7305.54
862.714
-3056.47
-1076.98
4502.95
-7178.23
2136.76
6857.07
-3424.27
-10098.3
-6206.7
1341.92
11942.2
11009.9
3776.02
-640.507
-7564.37
149.636
-4730.19
-7544.37
-645.79
-46.4552
-5819.4
863.51
2414.84
-2777.08
-6872.55
-1700.59
6239.25
7571.71
1817.02
2054.77
-2508.98
-4239.58
8048.76
3182.53
5134.58
-4737.73
-1687.07
-6608.65
16027
2222.26
-7127.84
4428.63
-6857.95
10982.1
10944.6
-312.61
-6472.29
-270.412
6363.99
-2220.93
5014.35
-2491.02
-3169.92
4918.12
-7872.04
10003.1
1946.51
117.279
-8618.2
6031.28
-3599.89
6790.68
8117.33
-460.195
-10809.7
752.754
-4628.17
-1899.94
4142.73
2975.12
-6808.58
-6959.37
-7634.37
-278.357
-10629.4
12294
-23007.7
-6025.76
-10330.1
-18660.4
-13160.4
8360.09
10477.8
-1144.22
-7935.37
-5755.12
6028.87
11310.3
-7513.82
-5659.39
-9916.58
-10273
2732.36
1496.94
2660.56
-9265.38
5783.3
3770.55
-1689.9
-2464.91
10348.8
2578.27
-329.759
4896.07
-7881.92
-7744.92
1725.43
8121.59
10129
10643.1
2298.82
7791.57
-4110.43
-846.61
14038.1
-6615.93
-25433.9
1957.4
4602.84
7826.17
2238.4
137.433
-15164.1
-9099.72
-1312.14
8286.43
820.416
1154.52
-86.8873
-6177.36
5549.8
12900.4
-9660.76
-1644.82
-1358.13
11234.3
-907.131
-19958.6
-462.451
9718.79
454.269
-9609.39
1105.96
-8331.6
1404.88
8335.82
1762.48
-9103.38
-1284.18
-12624.6
-1735.21
-3334.14
-4343.4
-1555.58
-7665.22
-7125.54
-6042.49
14122.4
-16183.9
-10210.9
695.001
902.661
-8500.59
-3687.33
2642.46
2263.98
3699.36
2306.97
-12110.5
-4308.85
5186.52
2981.71
9101.27
-4141.38
6626.08
11640.5
7632.11
3271.25
17832.2
-2903.21
-16628.6
3099.49
5106.5
-13850.9
16909.6
5222.56
9176.18
-5400.09
5305.4
45.6253
2681.2
7669.74
5547.06
-3542.8
-1294.4
-3887.77
4299.66
9774.54
-3229.51
-5008.55
5998.84
7804.7
5250.83
-2654.5
1040.13
-3028.09
984.402
1986.98
4145.8
-1814.87
4355.93
6925.99
-7868.35
-2784.44
12691.4
-175.523
17619.2
-1431.93
-2412.05
1684.35
3290
-2050.55
5512.59
1931.58
4598
-6249.89
-14546.4
-10552.1
-4355.23
-9070.45
-1584.81
5430.85
3994.23
10236.3
4912.31
-3571.25
-10456.3
10452.7
11603.9
4320.69
-11796.2
660.473
-4302.06
-205.14
906.058
9530.01
-3590.86
-2575.64
-8321.33
-3493.97
-2307.7
-10793.8
-9228.11
-6585.2
2963.02
14531.5
-381.775
160.019
-8029.01
-2357.28
13349.4
1467.98
6713.73
-5671.05
-1000.79
-2068.01
4316.2
3056.81
7720.03
4497.13
-2382.38
-189.574
-1314.24
-766.87
4668.6
5907.85
5994.71
11301.4
-2734.72
-1079.4
-5961.8
-5232.26
-6931.15
-869.353
626.037
-5242.76
340.66
3623.01
6811.33
-1350.23
366.916
1530.44
15081.4
-437.921
-549.039
-5313.25
-9964.93
1867.07
1793.11
-878.774
1327.02
-6043.25
-13344
-4694.74
11406.8
6286.53
-82.2831
-404.998
7730.57
-2606.71
-5925.19
-610.142
-10090
-2128.98
-7871.64
-2241.79
1464.65
-6237.48
2940.19
4942.8
18741.5
13906.3
12167.7
3678.33
1438.01
-1323.8
6996.2
-4910.89
-6286.61
3403.65
-3842.56
-2579.64
-568.683
11772.2
-2823.28
-1380.71
-12763.9
12404.1
2462.88
6519.92
-760.466
6534.56
-4065.35
4869.38
548.693
5732.48
-16842.6
6513.02
13208.8
-7591.04
-9319.54
630.618
8731.52
-3376
17926.9
10036.4
12030.1
13785.1
-407.538
4005.87
6057.75
2435.74
7535.56
1416.17
5456.08
-11839.3
-5464.47
-18590.4
-935.241
3990.63
-5958.04
1707.06
18312.5
-2437.63
-2029.43
12431.4
437.747
16593.4
-5010.02
1182.54
-12530
-6207.95
-5623.56
7322.58
-4755.09
-3214.9
8753.21
7386.36
128.026
32.4676
4975.3
9711.82
3853.2
257.784
1547.72
-115.609
12439.8
-1318.57
2618.45
-11342.6
-4641.3
-6898.39
3110.44
-13662.2
2070.6
-7408.18
3674.92
-2060.77
9099.52
5152.17
-15113.8
-8709.17
-12133.6
-6689.83
7354.73
3960.58
527.675
1968.22
-995.25
-922.316
1060.79
4964.74
-5468.99
383.768
-23380.7
12122
9749.93
-3474.93
-4670.42
640.797
-2275.92
-1356.16
-5223.47
-2.86766
-6332.43
-7447.37
6788.99
8220.03
8534.74
-2569.67
1900.94
-9179.09
-6091.27
-130.919
507.293
-151
3188.08
1291.43
2285.98
-10169.5
-17351.9
-1785.95
-2169.24
-12553.1
2043.57
3838.44
2092.49
3846.41
-3730.57
4429.49
10699
-3306.21
83.3614
577.904
3062.55
-361.805
2725.35
22957.9
-4388.65
-368.288
-8528.32
6050.01
9241.95
6631.03
-8656.71
-8560.3
13185.4
5241.55
2627.31
6697.31
-2675.39
-1956.58
5531.16
-15017.9
16196.2
-3715.5
-19822.6
7211.14
9839.24
10225.8
-1575.28
-7856.04
13380.9
-9831.62
-1650.96
3543.33
-9747.72
2365.68
2887.03
1659.01
9308.78
1904.55
-8887.37
-3461.16
3502.97
8886.95
-2689.27
-11382.5
-13429.3
7617.63
12406.2
-12268.4
4043.82
-9537.68
2564.26
1109.29
-498.242
1021.51
-11597
-5886.65
-4603.19
171.615
13042
1082.8
-2843.98
5501.07
-5348.62
12383.4
-4330.6
-13584.1
-11446.4
-11412.1
10442
-9165.61
8389.21
-8314.69
-4323.42
18143.6
-2354.99
1100.44
-1131.07
-5458.58
7239.15
6639.77
3897.78
17347.5
4144.27
8067.87
8947.02
9398.04
-5529.2
2256.25
-3238.82
-5585.15
-10528.4
4905.63
2970.56
6649.09
1958.2
406.601
17146.8
89.5626
10213.5
2610.84
529.189
12834.2
-10974
5067.62
3103.38
549.247
17908.4
-11274
-2561.12
13177.2
-3737.66
6246.73
-6465.91
-3480.13
-7309.94
4261.94
-3859.02
-3513.57
-8122.71
1215.43
2544.93
-6957.31
-137.42
-1262.6
15390.4
-1375.11
428.581
6778.56
-7894.42
-6680.47
13067
-2717.32
-5232.78
-9439.97
-5095.75
-2353.6
2863.37
6931.93
286.995
-2815.17
-19807
4071
1998.85
-4531.97
-6116.34
-9614.19
-12300.7
8344.4
2239.42
-11035.1
10106.5
7472
-3820.82
8856.58
4741.33
3635.82
1947.96
-4351.31
-8537.65
-8588.01
-1128.67
2731.11
-4177.27
-7485.35
-1782.72
1275.1
-6541.29
1363.1
4121.44
-7886.36
-14660.3
10962.4
-1377.16
-3631.93
9830.52
212.759
4222.13
-10370.3
2215.81
-6641.18
-11308.3
2160.16
8123.05
7874.08
-12311.9
12466.4
11267.6
16319.4
-912.662
-429.59
-10669.9
9151.02
7302.37
-3210.66
3803.76
-5831.29
-8448.03
13924.9
3407.04
-2716.81
1385.16
-19714.4
-1047.07
7782.6
-8578.28
-18276.4
-7333.29
-3112.62
10491.7
-3070.1
-10848.4
-4942.41
6587.18
5053.51
3011.03
6658.13
3053.79
11886.7
985.926
4142.86
-7391.79
1971.54
-6031.09
-11086.4
-1276.9
-5330.14
-4851.76
7303.81
8736.59
2122.38
137.963
3171.74
-5564.53
3360.16
-2004.41
-14544.6
-6269
-8820.6
9582.29
6164.43
-2863.28
5364.32
1580.37
-6470.53
16525.9
-12098.7
10030.4
-7807.91
-3427.61
8691.09
7228.69
21.0798
3245.68
4920.91
-783.414
1401.52
-15338.2
22432.7
-13238.2
9097.54
319.861
1559.71
10874.4
4104.88
-3989.01
-3497.41
9521.17
9070.52
-6110.5
6725.71
2423.54
12644.9
281.35
-3968.1
7736.33
-7417.54
-7569.2
2836.24
-278.076
16785.5
5635.41
5118.41
1483.46
-3484.83
13707.4
-3590.88
-4640.81
5930.84
935.184
1790.32
7891.94
-2584.72
1132.16
-4374.43
4574.14
-3318.65
-2787.54
12139.5
-16643.6
4368.3
1467.21
1684.85
7565.31
-1601.34
2440.02
-1561.84
-1112.34
7944.19
11018
-6649.65
-1884.08
10094
3163.62
-14809.6
2907.76
3430.86
-6427.29
641.457
-2571.62
-17652.7
-227.091
-9854.03
4181.42
-2076.9
4136.46
-8286.83
2573.94
6662.49
-10024
-2047.74
-6596.75
-6246.6
8403.15
6256.91
-2377.66
4570.82
-3987.95
-10391.2
1842.14
7751.56
703.579
-5003.64
-10912
-15809.5
14048.8
11787.7
-14746.5
-3203.32
-7620.25
435.116
11139.1
-6935.06
748.929
-15985.1
6561.14
-10422.2
1723.35
-9578.33
-724.604
-6969.27
-3307.2
132.87
8381.77
-1103.17
-228.373
-10460.1
-2792.36
9579.26
820.067
12292.6
-941.2
10371.9
-10329.5
13381.2
11032.3
4235.57
-8619.24
6687.52
7459.27
-2575.76
5797.59
-8439.58
8802.19
-4501.91
10471.6
5563.99
-4143.79
-6536.61
1.86688
-189.238
-7190.03
13951.8
-8743.39
-5678.42
7324.15
-14256.5
11602
3127.21
-9311.24
-2434.55
6282.45
-3258.54
6506.87
3568.49
-4591.35
10824.4
-17797.7
-4056.49
9945
3623.32
-12494.9
9626.2
10131.3
10397.8
9670.84
-8543.06
3569.97
-3475.98
-5995.71
-16368.5
8209.32
-7999.89
3750.11
-10374.3
-5364.8
5193.67
-2412.26
18599.2
333.342
-1781.72
-24775.7
2549.49
-16470.3
-1410.27
-342.005
9405.15
-5414.54
1473.11
-7667.11
-4757.29
-3395.74
-3927.52
18135.4
6245.45
4519.46
2876.58
795.522
-4736.54
4261.33
-3255.76
-6632.1
-2562.05
-707.264
4935.81
-7033.6
8786.5
10053
3034.05
1769.04
2185.23
10606.4
3139.63
13769.6
-20573.2
8588.9
-549.923
7569
5021.5
11457.3
-22471.4
-2743.84
14716.2
-2645.28
14634
-17739.7
-1030.14
15053.4
-4752.87
-9708.5
17633.3
8044.19
2991.7
9890.05
-6431.04
20683.4
4029.75
64.3812
-13116.1
4547.56
-8632.21
3024.48
6791.56
5603.68
-11163
-3511.07
-4938.46
13407.1
14485.4
2921.61
5642.21
-10281.4
4993.6
-16085.6
-10394
3370.03
-9171.69
4288.21
315.041
-2315.73
8623.72
-913.636
-3775.33
16449.8
-8401.15
6561.91
4990.59
-6203.18
13831.4
-3731.3
-5554.11
-3108.74
-16764.5
-4541.35
4994.44
1863.45
9721.05
63.4047
-10357.7
12588.1
7533.67
-6710.59
260.237
-4886.42
2093.44
3726.86
63.9903
5576.91
-2851.92
-3597.41
4447.71
2130.91
13051.2
-1072.83
-4168.05
-10606.3
3895.55
8034.03
-437.893
-16942
-11252.9
1855.27
11236.6
13210.6
1693.51
-3366.25
4682.17
8113.43
-8560.07
-1176.71
-3343.71
-4001.13
-10583.5
3004.51
6634.37
4766.18
-2184.31
-1585.08
4741.74
-14335.9
6445.17
3068.04
-2703.59
-4300.49
-5616.29
3753.47
1617.95
-1113.73
5385.57
-5020.8
-7622.69
8880.78
-6195.73
11935.4
19704.2
4004.3
4815.67
-2878.03
13612.1
3234.42
-2987.11
-9019.82
3685.6
-11120
2654.82
9566.43
-5206.72
-437.263
-9744.93
3985.21
-2777.61
-765.412
-11657.8
-4404.04
-4840.21
-1531.49
9815.94
1308.38
9287
3222.17
7286.09
4695.48
12661.3
-12748.9
5472.05
-773.294
10952.5
12075.4
-14668.5
-1196.86
-1220.75
-6971.85
4696.24
-9990.45
2654.88
795.496
-7207.71
1035.69
-5923.27
2480.86
-2844.31
-2335.95
4725.06
12743
-1295.98
-3183.52
9272.17
8469.21
10933.4
-729.123
9813.73
-5985.4
4962.92
9555.32
-541.806
3524.98
5150.5
-4431.02
786.049
-588.032
13167.7
-859.321
5491.98
17404.8
2774.48
777.358
808.665
51.414
-5945.04
3377.83
-6614.76
11791.8
2067.83
7033.12
5303
-7273.64
-8901.77
-1397.74
-4170.3
-4970.63
-274.804
-8100.57
782.998
7930.17
-7073.92
-4863.51
495.18
-2653.44
-14329.7
-9951.32
-3235.28
-2515.15
-2076.83
8066.59
5367.61
11102.5
-7670.54
5561.46
626.934
-3832.18
-5976.7
3700.78
8941.45
1963.92
-5381.72
3039.47
8837.16
7670.33
-1981.84
6627.67
-7402.47
269.203
4081.17
-4502.19
7530.3
-9875.43
7919.21
4000.88
7101.58
1137.57
2952.53
299.302
2049.34
4723.38
13310.4
263.102
-7420.77
4675.02
5025.16
1447.39
-5590.86
-5957.94
5846.08
-10175.6
3085.44
-609.428
-9573.03
-2473.85
14248.8
3080.79
-2895.83
-6400.87
-5249.64
362.316
-515.676
-16600.8
11339.8
-5557.86
-2043.81
2629.95
-1644.85
-1114.3
-4274.76
3574.25
-12829.7
-1446.3
-6416.11
-4333.45
-12604.8
1450.18
8142.54
798.201
-4506.22
14861.2
347.18
-1115.48
-7562.68
-648.324
2014.49
1064.5
-1023.44
-15007.8
641.425
-12521.7
2851.8
-3567.13
-1925.86
2369.21
-8513.8
9904.25
2049.26
-6125.06
-5537.01
-14472.4
-11281.3
9109.7
2727.4
14942.6
-8934.87
-1446.04
12331.1
-5462.79
8517.72
-284.954
4473.65
-2479.14
-3338.17
21539.1
1761.6
-73.323
4083.33
-1957.63
464.203
4047.41
-14201.7
5422.42
-7924
-9195.79
-8078.57
2806.55
4302.55
-5546.23
6049.86
-6857.69
98.542
-921.812
-2422.33
10267.4
-13366.6
569.602
7100.47
-9241.35
103.474
-1856.54
-1785.9
2905.08
-17148.2
11683.4
-298.668
996.641
-3753.05
-3869.67
-2887.04
8863.52
7491.08
7326
-3270.24
12373.9
280.282
-375.758
4570.85
-13560.8
-9271.86
-10573.9
-7747.89
-1525.46
3864.88
8658.93
3988.4
3404.25
10744.3
400.426
2863.24
-5033.73
-9930.86
2775.48
-13212.3
6170.38
-1678.54
-5832.43
7298.98
-1225.22
-7304.41
6560.12
-572.78
9761.79
5063.51
-3698.82
-3871.7
-17403.5
11843
4993.24