# vtk DataFile Version 3.0
PFC simulation results
ASCII
DATASET STRUCTURED_POINTS
DIMENSIONS 128 128 1
ORIGIN 0 0 0
SPACING 1 1 1
POINT_DATA 16384
SCALARS psi double
LOOKUP_TABLE default
0.523728
0.395513
0.0691502
-0.297662
-0.523389
-0.501095
-0.242713
0.123633
0.408875
0.466973
0.265244
-0.101829
-0.449397
-0.603452
-0.490753
-0.163813
0.215763
0.455306
0.436871
0.16687
-0.225184
-0.543255
-0.634041
-0.456865
-0.0935765
0.278326
0.475661
0.406016
0.100765
-0.294718
-0.587248
-0.641795
-0.435945
-0.0629739
0.298619
0.476253
0.39061
0.0803709
-0.309995
-0.595467
-0.649824
-0.452877
-0.0911276
0.268625
0.461585
0.407075
0.130961
-0.244303
-0.549821
-0.658154
-0.53216
-0.225307
0.132742
0.390636
0.451354
0.301606
0.00405438
-0.322038
-0.551167
-0.607692
-0.480334
-0.214699
0.0941183
0.333539
0.422406
0.333539
0.0941183
-0.214699
-0.480334
-0.607692
-0.551167
-0.322038
0.00405438
0.301606
0.451354
0.390636
0.132742
-0.225307
-0.53216
-0.658154
-0.549821
-0.244303
0.130961
0.407075
0.461585
0.268625
-0.0911276
-0.452877
-0.649824
-0.595467
-0.309995
0.0803709
0.39061
0.476253
0.298619
-0.0629739
-0.435945
-0.641795
-0.587248
-0.294718
0.100765
0.406016
0.475661
0.278326
-0.0935765
-0.456865
-0.634041
-0.543255
-0.225184
0.16687
0.436871
0.455306
0.215763
-0.163813
-0.490753
-0.603452
-0.449397
-0.101829
0.265244
0.466973
0.408875
0.123633
-0.242713
-0.501095
-0.523389
-0.297662
0.0691502
0.395513
0.490731
0.349506
-0.00851726
-0.407504
-0.649549
-0.621737
-0.337345
0.0671862
0.38744
0.464784
0.263459
-0.117489
-0.483961
-0.652491
-0.543751
-0.207816
0.190775
0.451618
0.45
0.188639
-0.204864
-0.533003
-0.63707
-0.469963
-0.108586
0.271042
0.483393
0.431978
0.14249
-0.246687
-0.545283
-0.614112
-0.42347
-0.0597905
0.303184
0.493996
0.430532
0.143848
-0.23276
-0.520703
-0.590358
-0.41338
-0.0679708
0.286671
0.490503
0.462467
0.220813
-0.12652
-0.422572
-0.540081
-0.434722
-0.15237
0.186145
0.439836
0.519099
0.410554
0.165964
-0.11391
-0.316916
-0.368878
-0.255749
-0.0213387
0.246363
0.45045
0.525468
0.45045
0.246363
-0.0213387
-0.255749
-0.368878
-0.316916
-0.11391
0.165964
0.410554
0.519099
0.439836
0.186145
-0.15237
-0.434722
-0.540081
-0.422572
-0.12652
0.220813
0.462467
0.490503
0.286671
-0.0679708
-0.41338
-0.590358
-0.520703
-0.23276
0.143848
0.430532
0.493996
0.303184
-0.0597905
-0.42347
-0.614112
-0.545283
-0.246687
0.14249
0.431978
0.483393
0.271042
-0.108586
-0.469963
-0.63707
-0.533003
-0.204864
0.188639
0.45
0.451618
0.190775
-0.207816
-0.543751
-0.652491
-0.483961
-0.117489
0.263459
0.464784
0.38744
0.0671862
-0.337345
-0.621737
-0.649549
-0.407504
-0.00851726
0.349506
0.532818
0.404374
0.077728
-0.28814
-0.510136
-0.480975
-0.214097
0.161109
0.45842
0.538234
0.369631
0.0364982
-0.292607
-0.450405
-0.359532
-0.0642471
0.287964
0.52319
0.535268
0.3239
-0.00880137
-0.296855
-0.397071
-0.261442
0.0439906
0.368026
0.555917
0.52753
0.299599
-0.0212049
-0.278735
-0.348387
-0.197756
0.100855
0.402795
0.569346
0.533822
0.316002
0.0147375
-0.227731
-0.297491
-0.163447
0.111044
0.396961
0.568992
0.564446
0.393901
0.133059
-0.100646
-0.20236
-0.129834
0.0813384
0.335593
0.528135
0.597366
0.536747
0.381279
0.19641
0.0586001
0.0231085
0.101151
0.258056
0.430569
0.557592
0.603317
0.557592
0.430569
0.258056
0.101151
0.0231085
0.0586001
0.19641
0.381279
0.536747
0.597366
0.528135
0.335593
0.0813384
-0.129834
-0.20236
-0.100646
0.133059
0.393901
0.564446
0.568992
0.396961
0.111044
-0.163447
-0.297491
-0.227731
0.0147375
0.316002
0.533822
0.569346
0.402795
0.100855
-0.197756
-0.348387
-0.278735
-0.0212049
0.299599
0.52753
0.555917
0.368026
0.0439906
-0.261442
-0.397071
-0.296855
-0.00880137
0.3239
0.535268
0.52319
0.287964
-0.0642471
-0.359532
-0.450405
-0.292607
0.0364982
0.369631
0.538234
0.45842
0.161109
-0.214097
-0.480975
-0.510136
-0.28814
0.077728
0.404374
0.608845
0.514798
0.273797
0.000205963
-0.167347
-0.142857
0.0617297
0.343049
0.563305
0.625862
0.51096
0.275577
0.0366954
-0.0822382
-0.0200715
0.189484
0.437555
0.603975
0.619206
0.482977
0.259967
0.0601055
-0.0143211
0.0741888
0.278351
0.49387
0.620598
0.609173
0.469228
0.264436
0.0935452
0.0424313
0.136214
0.325646
0.516207
0.6232
0.608307
0.482562
0.30134
0.149363
0.10098
0.178962
0.342001
0.509805
0.61098
0.614037
0.526592
0.387764
0.259551
0.201631
0.239143
0.348475
0.472894
0.559663
0.587692
0.564241
0.508399
0.444162
0.398245
0.390685
0.422602
0.474503
0.520482
0.546611
0.554194
0.546611
0.520482
0.474503
0.422602
0.390685
0.398245
0.444162
0.508399
0.564241
0.587692
0.559663
0.472894
0.348475
0.239143
0.201631
0.259551
0.387764
0.526592
0.614037
0.61098
0.509805
0.342001
0.178962
0.10098
0.149363
0.30134
0.482562
0.608307
0.6232
0.516207
0.325646
0.136214
0.0424313
0.0935452
0.264436
0.469228
0.609173
0.620598
0.49387
0.278351
0.0741888
-0.0143211
0.0601055
0.259967
0.482977
0.619206
0.603975
0.437555
0.189484
-0.0200715
-0.0822382
0.0366954
0.275577
0.51096
0.625862
0.563305
0.343049
0.0617297
-0.142857
-0.167347
0.000205963
0.273797
0.514798
0.62128
0.574439
0.452853
0.312113
0.225074
0.239771
0.347772
0.490247
0.59734
0.626747
0.573273
0.463472
0.350442
0.293514
0.322826
0.418754
0.526655
0.594688
0.599418
0.544943
0.456598
0.376964
0.348437
0.385914
0.465221
0.541387
0.580253
0.572264
0.525305
0.45929
0.405097
0.392073
0.427206
0.487743
0.538851
0.559477
0.548982
0.516201
0.473878
0.440678
0.435056
0.460117
0.497344
0.521591
0.523323
0.511802
0.499589
0.492311
0.492002
0.500536
0.513962
0.517249
0.494716
0.450462
0.412135
0.409126
0.448611
0.512067
0.570656
0.60113
0.589404
0.531007
0.440413
0.355896
0.321282
0.355896
0.440413
0.531007
0.589404
0.60113
0.570656
0.512067
0.448611
0.409126
0.412135
0.450462
0.494716
0.517249
0.513962
0.500536
0.492002
0.492311
0.499589
0.511802
0.523323
0.521591
0.497344
0.460117
0.435056
0.440678
0.473878
0.516201
0.548982
0.559477
0.538851
0.487743
0.427206
0.392073
0.405097
0.45929
0.525305
0.572264
0.580253
0.541387
0.465221
0.385914
0.348437
0.376964
0.456598
0.544943
0.599418
0.594688
0.526655
0.418754
0.322826
0.293514
0.350442
0.463472
0.573273
0.626747
0.59734
0.490247
0.347772
0.239771
0.225074
0.312113
0.452853
0.574439
0.476226
0.481809
0.492981
0.50115
0.505598
0.509156
0.50749
0.49322
0.470808
0.457389
0.465377
0.490248
0.517492
0.535343
0.536113
0.51289
0.467593
0.42095
0.402247
0.425235
0.477288
0.531137
0.562782
0.557761
0.511531
0.437649
0.371557
0.351368
0.389909
0.466154
0.54153
0.582732
0.571533
0.506249
0.40884
0.325094
0.300515
0.349497
0.446468
0.543799
0.598758
0.587452
0.507043
0.382519
0.267918
0.221173
0.268064
0.386639
0.521014
0.612194
0.621125
0.53434
0.370803
0.19019
0.0733083
0.0770774
0.20181
0.390412
0.558456
0.636359
0.591453
0.431349
0.209985
0.0188033
-0.0563336
0.0188033
0.209985
0.431349
0.591453
0.636359
0.558456
0.390412
0.20181
0.0770774
0.0733083
0.19019
0.370803
0.53434
0.621125
0.612194
0.521014
0.386639
0.268064
0.221173
0.267918
0.382519
0.507043
0.587452
0.598758
0.543799
0.446468
0.349497
0.300515
0.325094
0.40884
0.506249
0.571533
0.582732
0.54153
0.466154
0.389909
0.351368
0.371557
0.437649
0.511531
0.557761
0.562782
0.531137
0.477288
0.425235
0.402247
0.42095
0.467593
0.51289
0.536113
0.535343
0.517492
0.490248
0.465377
0.457389
0.470808
0.49322
0.50749
0.509156
0.505598
0.50115
0.492981
0.481809
0.151366
0.20935
0.352883
0.509086
0.604988
0.599756
0.492279
0.323695
0.171209
0.11219
0.178229
0.335517
0.503743
0.601461
0.582862
0.449751
0.255286
0.0910391
0.0407521
0.131288
0.317036
0.50489
0.605464
0.572358
0.413959
0.195645
0.0206678
-0.0233848
0.0859026
0.294177
0.499202
0.605742
0.566317
0.392115
0.154335
-0.036831
-0.0887277
0.0235255
0.245706
0.471745
0.598966
0.572219
0.395951
0.136996
-0.0910659
-0.183012
-0.0970449
0.127661
0.388461
0.56931
0.593612
0.443577
0.165786
-0.130251
-0.316729
-0.314106
-0.124282
0.170085
0.438585
0.567256
0.50337
0.264255
-0.0602173
-0.33307
-0.438269
-0.33307
-0.0602173
0.264255
0.50337
0.567256
0.438585
0.170085
-0.124282
-0.314106
-0.316729
-0.130251
0.165786
0.443577
0.593612
0.56931
0.388461
0.127661
-0.0970449
-0.183012
-0.0910659
0.136996
0.395951
0.572219
0.598966
0.471745
0.245706
0.0235255
-0.0887277
-0.036831
0.154335
0.392115
0.566317
0.605742
0.499202
0.294177
0.0859026
-0.0233848
0.0206678
0.195645
0.413959
0.572358
0.605464
0.50489
0.317036
0.131288
0.0407521
0.0910391
0.255286
0.449751
0.582862
0.601461
0.503743
0.335517
0.178229
0.11219
0.171209
0.323695
0.492279
0.599756
0.604988
0.509086
0.352883
0.20935
-0.258763
-0.156492
0.100863
0.387041
0.56523
0.555525
0.359051
0.0593959
-0.202561
-0.300008
-0.18655
0.0830489
0.375659
0.548765
0.521336
0.300556
-0.0171808
-0.280013
-0.360716
-0.221222
0.0721417
0.375975
0.543914
0.498387
0.255099
-0.0784762
-0.343332
-0.413768
-0.258017
0.0512529
0.365725
0.53693
0.487982
0.2363
-0.108603
-0.385565
-0.467061
-0.318246
-0.00621846
0.324105
0.520558
0.497501
0.260652
-0.0925481
-0.403803
-0.535072
-0.432776
-0.140568
0.213314
0.470755
0.52244
0.343954
0.000648477
-0.363634
-0.591989
-0.593433
-0.369104
-0.010963
0.324572
0.49286
0.425908
0.147185
-0.230343
-0.543559
-0.662976
-0.543559
-0.230343
0.147185
0.425908
0.49286
0.324572
-0.010963
-0.369104
-0.593433
-0.591989
-0.363634
0.000648477
0.343954
0.52244
0.470755
0.213314
-0.140568
-0.432776
-0.535072
-0.403803
-0.0925481
0.260652
0.497501
0.520558
0.324105
-0.00621846
-0.318246
-0.467061
-0.385565
-0.108603
0.2363
0.487982
0.53693
0.365725
0.0512529
-0.258017
-0.413768
-0.343332
-0.0784762
0.255099
0.498387
0.543914
0.375975
0.0721417
-0.221222
-0.360716
-0.280013
-0.0171808
0.300556
0.521336
0.548765
0.375659
0.0830489
-0.18655
-0.300008
-0.202561
0.0593959
0.359051
0.555525
0.56523
0.387041
0.100863
-0.156492
-0.58074
-0.45129
-0.121302
0.251947
0.488036
0.478501
0.225844
-0.15621
-0.484508
-0.60441
-0.462757
-0.123403
0.251219
0.478439
0.452091
0.181886
-0.208058
-0.528962
-0.630182
-0.467316
-0.11339
0.26268
0.478862
0.435507
0.150604
-0.244588
-0.560053
-0.6505
-0.477623
-0.117694
0.260224
0.476573
0.434372
0.151531
-0.243924
-0.565579
-0.668974
-0.512073
-0.161846
0.222611
0.463625
0.456907
0.205708
-0.181096
-0.527257
-0.681023
-0.58193
-0.270335
0.120412
0.416364
0.493489
0.323323
-0.024379
-0.39823
-0.634971
-0.64029
-0.413468
-0.0459999
0.302827
0.483955
0.427468
0.15733
-0.213374
-0.522312
-0.640333
-0.522312
-0.213374
0.15733
0.427468
0.483955
0.302827
-0.0459999
-0.413468
-0.64029
-0.634971
-0.39823
-0.024379
0.323323
0.493489
0.416364
0.120412
-0.270335
-0.58193
-0.681023
-0.527257
-0.181096
0.205708
0.456907
0.463625
0.222611
-0.161846
-0.512073
-0.668974
-0.565579
-0.243924
0.151531
0.434372
0.476573
0.260224
-0.117694
-0.477623
-0.6505
-0.560053
-0.244588
0.150604
0.435507
0.478862
0.26268
-0.11339
-0.467316
-0.630182
-0.528962
-0.208058
0.181886
0.452091
0.478439
0.251219
-0.123403
-0.462757
-0.60441
-0.484508
-0.15621
0.225844
0.478501
0.488036
0.251947
-0.121302
-0.45129
-0.672511
-0.535921
-0.186249
0.211705
0.465746
0.459631
0.196268
-0.203129
-0.545422
-0.66986
-0.521849
-0.166564
0.228116
0.471644
0.453111
0.181924
-0.215261
-0.545321
-0.653352
-0.49203
-0.13301
0.253543
0.482394
0.451262
0.175793
-0.215854
-0.534981
-0.633826
-0.46987
-0.115443
0.263439
0.488699
0.46287
0.199924
-0.180304
-0.498392
-0.609816
-0.467849
-0.133768
0.240338
0.483715
0.495448
0.275519
-0.0790921
-0.406414
-0.560347
-0.477658
-0.193349
0.168819
0.449187
0.535522
0.402116
0.108072
-0.217027
-0.427909
-0.435345
-0.237266
0.082285
0.384025
0.543519
0.504642
0.286979
-0.0189869
-0.279088
-0.379818
-0.279088
-0.0189869
0.286979
0.504642
0.543519
0.384025
0.082285
-0.237266
-0.435345
-0.427909
-0.217027
0.108072
0.402116
0.535522
0.449187
0.168819
-0.193349
-0.477658
-0.560347
-0.406414
-0.0790921
0.275519
0.495448
0.483715
0.240338
-0.133768
-0.467849
-0.609816
-0.498392
-0.180304
0.199924
0.46287
0.488699
0.263439
-0.115443
-0.46987
-0.633826
-0.534981
-0.215854
0.175793
0.451262
0.482394
0.253543
-0.13301
-0.49203
-0.653352
-0.545321
-0.215261
0.181924
0.453111
0.471644
0.228116
-0.166564
-0.521849
-0.66986
-0.545422
-0.203129
0.196268
0.459631
0.465746
0.211705
-0.186249
-0.535921
-0.495605
-0.371799
-0.0572919
0.297383
0.523395
0.521376
0.293961
-0.0556954
-0.35926
-0.470646
-0.338213
-0.0230016
0.324075
0.539249
0.530133
0.304148
-0.0349303
-0.323277
-0.421791
-0.28473
0.0235557
0.354659
0.55378
0.537538
0.31695
-0.00738567
-0.280264
-0.371201
-0.238405
0.0556552
0.370587
0.562071
0.552881
0.351831
0.0487407
-0.214565
-0.314308
-0.205535
0.0608266
0.359952
0.558397
0.579972
0.423595
0.15801
-0.0966583
-0.223206
-0.16566
0.0481911
0.319844
0.530589
0.602225
0.518721
0.320092
0.0936566
-0.0571414
-0.0637571
0.0752367
0.295119
0.498292
0.605492
0.584426
0.448176
0.251631
0.0802401
0.0126665
0.0802401
0.251631
0.448176
0.584426
0.605492
0.498292
0.295119
0.0752367
-0.0637571
-0.0571414
0.0936566
0.320092
0.518721
0.602225
0.530589
0.319844
0.0481911
-0.16566
-0.223206
-0.0966583
0.15801
0.423595
0.579972
0.558397
0.359952
0.0608266
-0.205535
-0.314308
-0.214565
0.0487407
0.351831
0.552881
0.562071
0.370587
0.0556552
-0.238405
-0.371201
-0.280264
-0.00738567
0.31695
0.537538
0.55378
0.354659
0.0235557
-0.28473
-0.421791
-0.323277
-0.0349303
0.304148
0.530133
0.539249
0.324075
-0.0230016
-0.338213
-0.470646
-0.35926
-0.0556954
0.293961
0.521376
0.523395
0.297383
-0.0572919
-0.371799
-0.12668
-0.0357779
0.19176
0.443571
0.602381
0.602778
0.447
0.203243
-0.0125865
-0.0929052
0.00234643
0.225387
0.466182
0.614347
0.611461
0.462968
0.234865
0.0359165
-0.034573
0.0582404
0.266595
0.486998
0.619497
0.613651
0.476545
0.268762
0.0884616
0.0249843
0.109264
0.297377
0.496122
0.617128
0.616634
0.500315
0.318701
0.155525
0.0901683
0.153758
0.312198
0.486914
0.601742
0.618137
0.537776
0.396041
0.25592
0.183767
0.213193
0.325796
0.463499
0.56556
0.599914
0.565262
0.480728
0.382728
0.316899
0.315262
0.375764
0.464093
0.538184
0.573578
0.566653
0.523724
0.45913
0.399543
0.375159
0.399543
0.45913
0.523724
0.566653
0.573578
0.538184
0.464093
0.375764
0.315262
0.316899
0.382728
0.480728
0.565262
0.599914
0.56556
0.463499
0.325796
0.213193
0.183767
0.25592
0.396041
0.537776
0.618137
0.601742
0.486914
0.312198
0.153758
0.0901683
0.155525
0.318701
0.500315
0.616634
0.617128
0.496122
0.297377
0.109264
0.0249843
0.0884616
0.268762
0.476545
0.613651
0.619497
0.486998
0.266595
0.0582404
-0.034573
0.0359165
0.234865
0.462968
0.611461
0.614347
0.466182
0.225387
0.00234643
-0.0929052
-0.0125865
0.203243
0.447
0.602778
0.602381
0.443571
0.19176
-0.0357779
0.269871
0.312841
0.417693
0.529266
0.597062
0.597177
0.531725
0.427045
0.33196
0.296677
0.340345
0.437345
0.535984
0.592792
0.590436
0.53361
0.445577
0.367226
0.340017
0.378313
0.458183
0.535692
0.577442
0.573303
0.52913
0.462534
0.403868
0.384507
0.414616
0.473845
0.527792
0.55406
0.550088
0.522502
0.481525
0.444624
0.431935
0.450205
0.484231
0.510096
0.517173
0.512348
0.505167
0.498194
0.492459
0.49247
0.49918
0.502321
0.489125
0.462585
0.443454
0.450375
0.482337
0.522155
0.552052
0.560844
0.54048
0.489096
0.423358
0.377806
0.381515
0.434413
0.507547
0.565519
0.586799
0.565519
0.507547
0.434413
0.381515
0.377806
0.423358
0.489096
0.54048
0.560844
0.552052
0.522155
0.482337
0.450375
0.443454
0.462585
0.489125
0.502321
0.49918
0.49247
0.492459
0.498194
0.505167
0.512348
0.517173
0.510096
0.484231
0.450205
0.431935
0.444624
0.481525
0.522502
0.550088
0.55406
0.527792
0.473845
0.414616
0.384507
0.403868
0.462534
0.52913
0.573303
0.577442
0.535692
0.458183
0.378313
0.340017
0.367226
0.445577
0.53361
0.590436
0.592792
0.535984
0.437345
0.340345
0.296677
0.33196
0.427045
0.531725
0.597177
0.597062
0.529266
0.417693
0.312841
0.536749
0.526602
0.496447
0.454154
0.42096
0.418463
0.449223
0.494703
0.532062
0.548257
0.537877
0.499322
0.44323
0.397287
0.389853
0.42681
0.487213
0.54066
0.565495
0.551432
0.497896
0.421942
0.360309
0.348753
0.395437
0.475227
0.548484
0.584019
0.566581
0.496725
0.397913
0.316476
0.297123
0.352207
0.453379
0.551026
0.602562
0.585798
0.500227
0.373599
0.262103
0.223495
0.280296
0.405064
0.537504
0.618716
0.613986
0.517125
0.356555
0.198194
0.118525
0.159502
0.302622
0.478726
0.606959
0.632666
0.540098
0.356621
0.155672
0.0305742
0.0430112
0.187586
0.393931
0.565735
0.631112
0.565735
0.393931
0.187586
0.0430112
0.0305742
0.155672
0.356621
0.540098
0.632666
0.606959
0.478726
0.302622
0.159502
0.118525
0.198194
0.356555
0.517125
0.613986
0.618716
0.537504
0.405064
0.280296
0.223495
0.262103
0.373599
0.500227
0.585798
0.602562
0.551026
0.453379
0.352207
0.297123
0.316476
0.397913
0.496725
0.566581
0.584019
0.548484
0.475227
0.395437
0.348753
0.360309
0.421942
0.497896
0.551432
0.565495
0.54066
0.487213
0.42681
0.389853
0.397287
0.44323
0.499322
0.537877
0.548257
0.532062
0.494703
0.449223
0.418463
0.42096
0.454154
0.496447
0.526602
0.620986
0.55986
0.399352
0.207323
0.0750066
0.0687902
0.192174
0.383465
0.550368
0.619115
0.560531
0.394086
0.188747
0.0413441
0.025419
0.149513
0.352065
0.53483
0.615344
0.558393
0.382353
0.160083
-0.00408759
-0.0291305
0.0978562
0.31476
0.516939
0.612805
0.560491
0.376001
0.134512
-0.0523382
-0.0940734
0.0298918
0.260262
0.487247
0.608179
0.570727
0.383715
0.119947
-0.102386
-0.178479
-0.0722457
0.167224
0.427707
0.591156
0.587292
0.410581
0.125018
-0.14664
-0.279827
-0.213689
0.022057
0.318023
0.537682
0.585316
0.43682
0.14542
-0.164833
-0.352448
-0.332916
-0.114951
0.201777
0.470465
0.573799
0.470465
0.201777
-0.114951
-0.332916
-0.352448
-0.164833
0.14542
0.43682
0.585316
0.537682
0.318023
0.022057
-0.213689
-0.279827
-0.14664
0.125018
0.410581
0.587292
0.591156
0.427707
0.167224
-0.0722457
-0.178479
-0.102386
0.119947
0.383715
0.570727
0.608179
0.487247
0.260262
0.0298918
-0.0940734
-0.0523382
0.134512
0.376001
0.560491
0.612805
0.516939
0.31476
0.0978562
-0.0291305
-0.00408759
0.160083
0.382353
0.558393
0.615344
0.53483
0.352065
0.149513
0.025419
0.0413441
0.188747
0.394086
0.560531
0.619115
0.550368
0.383465
0.192174
0.0687902
0.0750066
0.207323
0.399352
0.55986
0.578777
0.474872
0.205517
-0.109511
-0.3214
-0.330883
-0.13364
0.17778
0.454795
0.57095
0.475814
0.206189
-0.119287
-0.347416
-0.371761
-0.181277
0.135422
0.427149
0.559154
0.473257
0.20226
-0.134776
-0.37955
-0.418668
-0.234763
0.0878764
0.396437
0.548238
0.476526
0.207852
-0.141215
-0.408333
-0.471354
-0.302977
0.0215595
0.351165
0.534184
0.490808
0.235046
-0.125588
-0.426578
-0.532303
-0.397974
-0.0814827
0.27355
0.504445
0.510813
0.286043
-0.0792963
-0.422024
-0.588432
-0.508646
-0.216106
0.159399
0.444625
0.513201
0.3343
-0.0202321
-0.392343
-0.613172
-0.588969
-0.329736
0.0520554
0.380319
0.507482
0.380319
0.0520554
-0.329736
-0.588969
-0.613172
-0.392343
-0.0202321
0.3343
0.513201
0.444625
0.159399
-0.216106
-0.508646
-0.588432
-0.422024
-0.0792963
0.286043
0.510813
0.504445
0.27355
-0.0814827
-0.397974
-0.532303
-0.426578
-0.125588
0.235046
0.490808
0.534184
0.351165
0.0215595
-0.302977
-0.471354
-0.408333
-0.141215
0.207852
0.476526
0.548238
0.396437
0.0878764
-0.234763
-0.418668
-0.37955
-0.134776
0.20226
0.473257
0.559154
0.427149
0.135422
-0.181277
-0.371761
-0.347416
-0.119287
0.206189
0.475814
0.57095
0.454795
0.17778
-0.13364
-0.330883
-0.3214
-0.109511
0.205517
0.474872
0.514699
0.384678
0.0499874
-0.336196
-0.592025
-0.603276
-0.365259
0.0160129
0.360487
0.50823
0.394564
0.0671477
-0.324728
-0.596345
-0.626261
-0.401924
-0.0223208
0.333822
0.50011
0.403298
0.0840094
-0.312434
-0.599206
-0.6483
-0.439397
-0.0634157
0.3043
0.492211
0.417932
0.112452
-0.286699
-0.592646
-0.669535
-0.485993
-0.120013
0.26102
0.480807
0.444001
0.165683
-0.231746
-0.564527
-0.685273
-0.545141
-0.201873
0.191847
0.455454
0.47506
0.242883
-0.141478
-0.502254
-0.677723
-0.595762
-0.289542
0.107645
0.41353
0.493637
0.315662
-0.0443873
-0.422471
-0.64586
-0.620021
-0.355316
0.0344379
0.369875
0.499896
0.369875
0.0344379
-0.355316
-0.620021
-0.64586
-0.422471
-0.0443873
0.315662
0.493637
0.41353
0.107645
-0.289542
-0.595762
-0.677723
-0.502254
-0.141478
0.242883
0.47506
0.455454
0.191847
-0.201873
-0.545141
-0.685273
-0.564527
-0.231746
0.165683
0.444001
0.480807
0.26102
-0.120013
-0.485993
-0.669535
-0.592646
-0.286699
0.112452
0.417932
0.492211
0.3043
-0.0634157
-0.439397
-0.6483
-0.599206
-0.312434
0.0840094
0.403298
0.50011
0.333822
-0.0223208
-0.401924
-0.626261
-0.596345
-0.324728
0.0671477
0.394564
0.50823
0.360487
0.0160129
-0.365259
-0.603276
-0.592025
-0.336196
0.0499874
0.384678
0.510566
0.378124
0.0373504
-0.355473
-0.615379
-0.626754
-0.384801
0.00345661
0.355476
0.508911
0.398277
0.0714643
-0.32164
-0.595279
-0.626842
-0.40294
-0.0221074
0.337155
0.508784
0.419699
0.109044
-0.281286
-0.566964
-0.619539
-0.416861
-0.0475418
0.31658
0.507744
0.445262
0.157353
-0.226023
-0.525064
-0.60529
-0.433087
-0.082745
0.285189
0.502727
0.479316
0.227557
-0.141082
-0.455772
-0.574602
-0.447674
-0.129031
0.238045
0.487287
0.515464
0.315347
-0.025637
-0.351019
-0.51172
-0.438254
-0.161966
0.193858
0.467524
0.5436
0.395382
0.0870806
-0.241549
-0.437833
-0.414073
-0.180431
0.158314
0.446123
0.556935
0.446123
0.158314
-0.180431
-0.414073
-0.437833
-0.241549
0.0870806
0.395382
0.5436
0.467524
0.193858
-0.161966
-0.438254
-0.51172
-0.351019
-0.025637
0.315347
0.515464
0.487287
0.238045
-0.129031
-0.447674
-0.574602
-0.455772
-0.141082
0.227557
0.479316
0.502727
0.285189
-0.082745
-0.433087
-0.60529
-0.525064
-0.226023
0.157353
0.445262
0.507744
0.31658
-0.0475418
-0.416861
-0.619539
-0.566964
-0.281286
0.109044
0.419699
0.508784
0.337155
-0.0221074
-0.40294
-0.626842
-0.595279
-0.32164
0.0714643
0.398277
0.508911
0.355476
0.00345661
-0.384801
-0.626754
-0.615379
-0.355473
0.0373504
0.378124
0.573143
0.46258
0.176259
-0.157842
-0.381883
-0.391761
-0.182983
0.147859
0.444721
0.574949
0.486476
0.217233
-0.112144
-0.345666
-0.374049
-0.184422
0.135307
0.434271
0.578728
0.511449
0.262336
-0.0576961
-0.297678
-0.34501
-0.178322
0.124904
0.421821
0.579881
0.537197
0.314333
0.00929824
-0.235506
-0.305413
-0.168941
0.110427
0.401835
0.575916
0.565571
0.379626
0.0987122
-0.14804
-0.245189
-0.148763
0.0960065
0.374861
0.564039
0.590811
0.450917
0.20505
-0.0351753
-0.156352
-0.101994
0.101798
0.359054
0.554092
0.610023
0.510753
0.298893
0.0684243
-0.0716032
-0.0540328
0.112558
0.348465
0.544759
0.619485
0.544759
0.348465
0.112558
-0.0540328
-0.0716032
0.0684243
0.298893
0.510753
0.610023
0.554092
0.359054
0.101798
-0.101994
-0.156352
-0.0351753
0.20505
0.450917
0.590811
0.564039
0.374861
0.0960065
-0.148763
-0.245189
-0.14804
0.0987122
0.379626
0.565571
0.575916
0.401835
0.110427
-0.168941
-0.305413
-0.235506
0.00929824
0.314333
0.537197
0.579881
0.421821
0.124904
-0.178322
-0.34501
-0.297678
-0.0576961
0.262336
0.511449
0.578728
0.434271
0.135307
-0.184422
-0.374049
-0.345666
-0.112144
0.217233
0.486476
0.574949
0.444721
0.147859
-0.182983
-0.391761
-0.381883
-0.157842
0.176259
0.46258
0.629424
0.558781
0.373848
0.153799
0.00319622
-0.00345105
0.137073
0.355111
0.54686
0.630606
0.576176
0.406241
0.193912
0.039886
0.0204129
0.144785
0.350632
0.539252
0.630098
0.591085
0.439698
0.240538
0.0871949
0.0553829
0.160286
0.348512
0.529102
0.624842
0.602623
0.474294
0.293926
0.144945
0.100403
0.181539
0.346106
0.513753
0.612716
0.609746
0.510742
0.357068
0.218292
0.161989
0.215238
0.348936
0.496266
0.593267
0.607847
0.540762
0.420434
0.300173
0.238698
0.266691
0.367568
0.488926
0.576398
0.6005
0.558134
0.46666
0.364463
0.301104
0.309768
0.384926
0.486441
0.566879
0.596534
0.566879
0.486441
0.384926
0.309768
0.301104
0.364463
0.46666
0.558134
0.6005
0.576398
0.488926
0.367568
0.266691
0.238698
0.300173
0.420434
0.540762
0.607847
0.593267
0.496266
0.348936
0.215238
0.161989
0.218292
0.357068
0.510742
0.609746
0.612716
0.513753
0.346106
0.181539
0.100403
0.144945
0.293926
0.474294
0.602623
0.624842
0.529102
0.348512
0.160286
0.0553829
0.0871949
0.240538
0.439698
0.591085
0.630098
0.539252
0.350632
0.144785
0.0204129
0.039886
0.193912
0.406241
0.576176
0.630606
0.54686
0.355111
0.137073
-0.00345105
0.00319622
0.153799
0.373848
0.558781
0.572647
0.551303
0.492834
0.418706
0.365415
0.363488
0.413849
0.486951
0.546008
0.569661
0.553615
0.503526
0.437602
0.387674
0.382153
0.423659
0.486412
0.537464
0.558688
0.547963
0.510079
0.457825
0.415702
0.408007
0.438678
0.486869
0.525378
0.541089
0.535212
0.511978
0.477839
0.44787
0.440101
0.458836
0.488662
0.509535
0.515195
0.512125
0.505349
0.494637
0.483257
0.479942
0.487535
0.495921
0.493272
0.481966
0.476034
0.483592
0.498894
0.51225
0.520175
0.52135
0.509752
0.481981
0.449917
0.435927
0.45206
0.48851
0.524292
0.544649
0.544322
0.521082
0.478481
0.43462
0.41574
0.43462
0.478481
0.521082
0.544322
0.544649
0.524292
0.48851
0.45206
0.435927
0.449917
0.481981
0.509752
0.52135
0.520175
0.51225
0.498894
0.483592
0.476034
0.481966
0.493272
0.495921
0.487535
0.479942
0.483257
0.494637
0.505349
0.512125
0.515195
0.509535
0.488662
0.458836
0.440101
0.44787
0.477839
0.511978
0.535212
0.541089
0.525378
0.486869
0.438678
0.408007
0.415702
0.457825
0.510079
0.547963
0.558688
0.537464
0.486412
0.423659
0.382153
0.387674
0.437602
0.503526
0.553615
0.569661
0.546008
0.486951
0.413849
0.363488
0.365415
0.418706
0.492834
0.551303
0.332553
0.36359
0.438986
0.519109
0.569242
0.573063
0.528764
0.449054
0.366901
0.324841
0.347207
0.421976
0.509815
0.570862
0.58271
0.53994
0.454062
0.359517
0.303925
0.318648
0.396418
0.496649
0.572607
0.594467
0.552829
0.458524
0.348368
0.276142
0.281359
0.362401
0.477628
0.57246
0.607871
0.568967
0.465086
0.335355
0.240858
0.231573
0.313971
0.446549
0.5658
0.620758
0.58856
0.475696
0.32317
0.200225
0.169595
0.24867
0.398102
0.545269
0.62491
0.603859
0.485005
0.311438
0.160622
0.10768
0.180606
0.342907
0.514584
0.617744
0.610248
0.492612
0.309786
0.144121
0.0775833
0.144121
0.309786
0.492612
0.610248
0.617744
0.514584
0.342907
0.180606
0.10768
0.160622
0.311438
0.485005
0.603859
0.62491
0.545269
0.398102
0.24867
0.169595
0.200225
0.32317
0.475696
0.58856
0.620758
0.5658
0.446549
0.313971
0.231573
0.240858
0.335355
0.465086
0.568967
0.607871
0.57246
0.477628
0.362401
0.281359
0.276142
0.348368
0.458524
0.552829
0.594467
0.572607
0.496649
0.396418
0.318648
0.303925
0.359517
0.454062
0.53994
0.58271
0.570862
0.509815
0.421976
0.347207
0.324841
0.366901
0.449054
0.528764
0.573063
0.569242
0.519109
0.438986
0.36359
-0.0574838
0.0223891
0.223181
0.44825
0.595715
0.605898
0.474234
0.251904
0.0373982
-0.0667833
-0.00994594
0.180557
0.41274
0.579342
0.610373
0.492198
0.269453
0.0392605
-0.0892055
-0.0537633
0.128845
0.370781
0.559082
0.612891
0.509192
0.286061
0.0390975
-0.115771
-0.10423
0.0686242
0.320406
0.53297
0.613478
0.527808
0.305888
0.0405023
-0.145501
-0.163753
-0.00518046
0.255561
0.495734
0.608569
0.546284
0.328907
0.0451002
-0.175482
-0.228841
-0.0896464
0.177149
0.445172
0.592514
0.556109
0.346163
0.0478463
-0.202905
-0.287958
-0.167542
0.102353
0.393281
0.570763
0.558807
0.360231
0.0576008
-0.209814
-0.315295
-0.209814
0.0576008
0.360231
0.558807
0.570763
0.393281
0.102353
-0.167542
-0.287958
-0.202905
0.0478463
0.346163
0.556109
0.592514
0.445172
0.177149
-0.0896464
-0.228841
-0.175482
0.0451002
0.328907
0.546284
0.608569
0.495734
0.255561
-0.00518046
-0.163753
-0.145501
0.0405023
0.305888
0.527808
0.613478
0.53297
0.320406
0.0686242
-0.10423
-0.115771
0.0390975
0.286061
0.509192
0.612891
0.559082
0.370781
0.128845
-0.0537633
-0.0892055
0.0392605
0.269453
0.492198
0.610373
0.579342
0.41274
0.180557
-0.00994594
-0.0667833
0.0373982
0.251904
0.474234
0.605898
0.595715
0.44825
0.223181
0.0223891
-0.448798
-0.333342
-0.0384337
0.299241
0.524147
0.540336
0.340758
0.00849774
-0.305234
-0.454881
-0.373656
-0.0975814
0.245969
0.497041
0.545835
0.371272
0.0449133
-0.285931
-0.467604
-0.419005
-0.161504
0.187358
0.464615
0.547079
0.399465
0.0813498
-0.265159
-0.479335
-0.465678
-0.23019
0.121314
0.424999
0.544304
0.428208
0.122394
-0.238529
-0.487652
-0.513814
-0.305849
0.0444973
0.374711
0.534426
0.454903
0.166326
-0.205995
-0.490036
-0.558207
-0.381327
-0.0362926
0.317253
0.515687
0.472238
0.202594
-0.176324
-0.488525
-0.592126
-0.442595
-0.104427
0.26613
0.495411
0.48205
0.230597
-0.148615
-0.477957
-0.606124
-0.477957
-0.148615
0.230597
0.48205
0.495411
0.26613
-0.104427
-0.442595
-0.592126
-0.488525
-0.176324
0.202594
0.472238
0.515687
0.317253
-0.0362926
-0.381327
-0.558207
-0.490036
-0.205995
0.166326
0.454903
0.534426
0.374711
0.0444973
-0.305849
-0.513814
-0.487652
-0.238529
0.122394
0.428208
0.544304
0.424999
0.121314
-0.23019
-0.465678
-0.479335
-0.265159
0.0813498
0.399465
0.547079
0.464615
0.187358
-0.161504
-0.419005
-0.467604
-0.285931
0.0449133
0.371272
0.545835
0.497041
0.245969
-0.0975814
-0.373656
-0.454881
-0.305234
0.00849774
0.340758
0.540336
0.524147
0.299241
-0.0384337
-0.333342
-0.665962
-0.534321
-0.19481
0.198873
0.463744
0.483842
0.250658
-0.135259
-0.495585
-0.665886
-0.57405
-0.258481
0.139485
0.434036
0.493946
0.293833
-0.0807036
-0.457337
-0.662949
-0.609887
-0.320207
0.0782337
0.399604
0.498973
0.334216
-0.024753
-0.413952
-0.653675
-0.641061
-0.381425
0.0127176
0.358687
0.499081
0.374169
0.0364516
-0.361373
-0.634992
-0.665774
-0.441253
-0.0569075
0.310626
0.492629
0.410943
0.0997172
-0.301558
-0.605973
-0.679196
-0.491041
-0.120549
0.262926
0.481304
0.439246
0.154451
-0.245677
-0.573318
-0.680959
-0.523495
-0.166941
0.225847
0.470472
0.458375
0.194741
-0.20246
-0.545919
-0.679092
-0.545919
-0.20246
0.194741
0.458375
0.470472
0.225847
-0.166941
-0.523495
-0.680959
-0.573318
-0.245677
0.154451
0.439246
0.481304
0.262926
-0.120549
-0.491041
-0.679196
-0.605973
-0.301558
0.0997172
0.410943
0.492629
0.310626
-0.0569075
-0.441253
-0.665774
-0.634992
-0.361373
0.0364516
0.374169
0.499081
0.358687
0.0127176
-0.381425
-0.641061
-0.653675
-0.413952
-0.024753
0.334216
0.498973
0.399604
0.0782337
-0.320207
-0.609887
-0.662949
-0.457337
-0.0807036
0.293833
0.493946
0.434036
0.139485
-0.258481
-0.57405
-0.665886
-0.495585
-0.135259
0.250658
0.483842
0.463744
0.198873
-0.19481
-0.534321
-0.613708
-0.485527
-0.155738
0.225545
0.481812
0.502145
0.278433
-0.0934511
-0.442213