# vtk DataFile Version 3.0
PFC simulation results
ASCII
DATASET STRUCTURED_POINTS
DIMENSIONS 128 128 1
ORIGIN 0 0 0
SPACING 1 1 1
POINT_DATA 16384
SCALARS psi double
LOOKUP_TABLE default
0.522861
0.395074
0.0700581
-0.294587
-0.517843
-0.493482
-0.234214
0.131377
0.414875
0.471696
0.270088
-0.0956832
-0.441709
-0.594797
-0.482129
-0.156448
0.220875
0.458056
0.438059
0.167752
-0.22333
-0.539543
-0.628222
-0.449493
-0.0862395
0.28349
0.477147
0.403659
0.0960033
-0.299036
-0.588195
-0.637823
-0.427581
-0.0531342
0.305707
0.477404
0.385138
0.0705618
-0.319398
-0.599718
-0.646566
-0.442907
-0.0785101
0.278108
0.463628
0.400692
0.118772
-0.256767
-0.556894
-0.656923
-0.523168
-0.212338
0.143912
0.395284
0.447996
0.291971
-0.00773726
-0.331246
-0.554986
-0.606304
-0.476079
-0.210766
0.0952595
0.331547
0.419091
0.331547
0.0952595
-0.210766
-0.476079
-0.606304
-0.554986
-0.331246
-0.00773726
0.291971
0.447996
0.395284
0.143912
-0.212338
-0.523168
-0.656923
-0.556894
-0.256767
0.118772
0.400692
0.463628
0.278108
-0.0785101
-0.442907
-0.646566
-0.599718
-0.319398
0.0705618
0.385138
0.477404
0.305707
-0.0531342
-0.427581
-0.637823
-0.588195
-0.299036
0.0960033
0.403659
0.477147
0.28349
-0.0862395
-0.449493
-0.628222
-0.539543
-0.22333
0.167752
0.438059
0.458056
0.220875
-0.156448
-0.482129
-0.594797
-0.441709
-0.0956832
0.270088
0.471696
0.414875
0.131377
-0.234214
-0.493482
-0.517843
-0.294587
0.0700581
0.395074
0.487646
0.346285
-0.0117572
-0.410003
-0.650441
-0.620613
-0.334566
0.070382
0.389488
0.464624
0.260846
-0.121924
-0.488891
-0.656572
-0.546206
-0.208644
0.190704
0.450867
0.447227
0.183345
-0.211743
-0.539439
-0.641141
-0.470788
-0.106878
0.273035
0.483018
0.427546
0.134315
-0.255935
-0.551953
-0.615646
-0.419557
-0.0528409
0.308899
0.494717
0.42478
0.133195
-0.243918
-0.527429
-0.589797
-0.405825
-0.0570383
0.295469
0.492817
0.456943
0.209392
-0.139067
-0.430907
-0.54107
-0.428415
-0.141887
0.195767
0.444322
0.516838
0.402523
0.155088
-0.123877
-0.323297
-0.371202
-0.255384
-0.0204744
0.245928
0.44829
0.522552
0.44829
0.245928
-0.0204744
-0.255384
-0.371202
-0.323297
-0.123877
0.155088
0.402523
0.516838
0.444322
0.195767
-0.141887
-0.428415
-0.54107
-0.430907
-0.139067
0.209392
0.456943
0.492817
0.295469
-0.0570383
-0.405825
-0.589797
-0.527429
-0.243918
0.133195
0.42478
0.494717
0.308899
-0.0528409
-0.419557
-0.615646
-0.551953
-0.255935
0.134315
0.427546
0.483018
0.273035
-0.106878
-0.470788
-0.641141
-0.539439
-0.211743
0.183345
0.447227
0.450867
0.190704
-0.208644
-0.546206
-0.656572
-0.488891
-0.121924
0.260846
0.464624
0.389488
0.070382
-0.334566
-0.620613
-0.650441
-0.410003
-0.0117572
0.346285
0.529053
0.399801
0.0714017
-0.295736
-0.517568
-0.486834
-0.21767
0.159335
0.456714
0.534316
0.361661
0.0242115
-0.307402
-0.464877
-0.371233
-0.0718998
0.283845
0.520292
0.530584
0.315322
-0.0211013
-0.310397
-0.408671
-0.268878
0.0409917
0.367531
0.554766
0.522977
0.290777
-0.0324588
-0.288808
-0.354091
-0.197985
0.104489
0.406713
0.570002
0.529318
0.306922
0.00429414
-0.235246
-0.29912
-0.158995
0.118825
0.403743
0.571266
0.560866
0.385472
0.122984
-0.108282
-0.204719
-0.12656
0.08809
0.342263
0.531735
0.596658
0.532057
0.37408
0.188879
0.0526651
0.0195719
0.0996044
0.257411
0.4298
0.556302
0.601768
0.556302
0.4298
0.257411
0.0996044
0.0195719
0.0526651
0.188879
0.37408
0.532057
0.596658
0.531735
0.342263
0.08809
-0.12656
-0.204719
-0.108282
0.122984
0.385472
0.560866
0.571266
0.403743
0.118825
-0.158995
-0.29912
-0.235246
0.00429414
0.306922
0.529318
0.570002
0.406713
0.104489
-0.197985
-0.354091
-0.288808
-0.0324588
0.290777
0.522977
0.554766
0.367531
0.0409917
-0.268878
-0.408671
-0.310397
-0.0211013
0.315322
0.530584
0.520292
0.283845
-0.0718998
-0.371233
-0.464877
-0.307402
0.0242115
0.361661
0.534316
0.456714
0.159335
-0.21767
-0.486834
-0.517568
-0.295736
0.0714017
0.399801
0.606957
0.511569
0.267332
-0.00948365
-0.178462
-0.152935
0.0545942
0.339187
0.561085
0.622332
0.503157
0.26218
0.0191358
-0.100451
-0.0351637
0.179905
0.433365
0.602525
0.616674
0.476238
0.248253
0.0455358
-0.0280533
0.0645071
0.273901
0.493304
0.6209
0.607231
0.463335
0.255292
0.0839494
0.0355424
0.133719
0.326928
0.518875
0.624524
0.606426
0.477209
0.294198
0.143338
0.0985042
0.180598
0.34621
0.513999
0.613012
0.6129
0.522482
0.382128
0.254627
0.199298
0.23992
0.351378
0.47621
0.562047
0.588578
0.563529
0.506255
0.441122
0.395127
0.38821
0.421097
0.473899
0.520514
0.547003
0.554702
0.547003
0.520514
0.473899
0.421097
0.38821
0.395127
0.441122
0.506255
0.563529
0.588578
0.562047
0.47621
0.351378
0.23992
0.199298
0.254627
0.382128
0.522482
0.6129
0.613012
0.513999
0.34621
0.180598
0.0985042
0.143338
0.294198
0.477209
0.606426
0.624524
0.518875
0.326928
0.133719
0.0355424
0.0839494
0.255292
0.463335
0.607231
0.6209
0.493304
0.273901
0.0645071
-0.0280533
0.0455358
0.248253
0.476238
0.616674
0.602525
0.433365
0.179905
-0.0351637
-0.100451
0.0191358
0.26218
0.503157
0.622332
0.561085
0.339187
0.0545942
-0.152935
-0.178462
-0.00948365
0.267332
0.511569
0.623863
0.575394
0.449731
0.304535
0.214933
0.230194
0.341544
0.488417
0.598636
0.628111
0.571216
0.455859
0.337903
0.279311
0.311152
0.412632
0.526485
0.598144
0.602673
0.544471
0.450895
0.367355
0.338268
0.378641
0.462676
0.543081
0.583887
0.574945
0.524892
0.455446
0.399424
0.387042
0.424658
0.488035
0.541022
0.56198
0.550354
0.515608
0.471564
0.437883
0.433193
0.459859
0.498391
0.523205
0.524902
0.512936
0.499935
0.491758
0.490884
0.499435
0.513271
0.517015
0.494966
0.451481
0.414175
0.411891
0.451228
0.513659
0.570955
0.600582
0.588807
0.531092
0.441566
0.358005
0.323773
0.358005
0.441566
0.531092
0.588807
0.600582
0.570955
0.513659
0.451228
0.411891
0.414175
0.451481
0.494966
0.517015
0.513271
0.499435
0.490884
0.491758
0.499935
0.512936
0.524902
0.523205
0.498391
0.459859
0.433193
0.437883
0.471564
0.515608
0.550354
0.56198
0.541022
0.488035
0.424658
0.387042
0.399424
0.455446
0.524892
0.574945
0.583887
0.543081
0.462676
0.378641
0.338268
0.367355
0.450895
0.544471
0.602673
0.598144
0.526485
0.412632
0.311152
0.279311
0.337903
0.455859
0.571216
0.628111
0.598636
0.488417
0.341544
0.230194
0.214933
0.304535
0.449731
0.575394
0.484582
0.488431
0.49523
0.498506
0.499896
0.503655
0.505351
0.496064
0.477915
0.465941
0.471724
0.491717
0.513915
0.529243
0.531347
0.512684
0.473004
0.430407
0.412366
0.432457
0.479584
0.528978
0.558718
0.554929
0.512144
0.44217
0.378688
0.358768
0.395297
0.468355
0.540937
0.580854
0.570013
0.506178
0.410617
0.328468
0.304663
0.353296
0.448975
0.544678
0.59828
0.58614
0.505518
0.381635
0.268591
0.223768
0.271991
0.390579
0.523642
0.612825
0.619832
0.531823
0.368399
0.189559
0.0755207
0.0818585
0.207621
0.395323
0.561294
0.63726
0.591473
0.431753
0.211622
0.0217057
-0.0529073
0.0217057
0.211622
0.431753
0.591473
0.63726
0.561294
0.395323
0.207621
0.0818585
0.0755207
0.189559
0.368399
0.531823
0.619832
0.612825
0.523642
0.390579
0.271991
0.223768
0.268591
0.381635
0.505518
0.58614
0.59828
0.544678
0.448975
0.353296
0.304663
0.328468
0.410617
0.506178
0.570013
0.580854
0.540937
0.468355
0.395297
0.358768
0.378688
0.44217
0.512144
0.554929
0.558718
0.528978
0.479584
0.432457
0.412366
0.430407
0.473004
0.512684
0.531347
0.529243
0.513915
0.491717
0.471724
0.465941
0.477915
0.496064
0.505351
0.503655
0.499896
0.498506
0.49523
0.488431
0.163975
0.220333
0.359725
0.511212
0.604027
0.598714
0.494259
0.330594
0.182793
0.126133
0.191149
0.344505
0.507899
0.602425
0.583852
0.453899
0.264135
0.103818
0.0548713
0.143615
0.325273
0.508639
0.606306
0.572836
0.416366
0.201169
0.0290024
-0.0137505
0.0948293
0.300669
0.502529
0.606374
0.56546
0.391238
0.154875
-0.0339396
-0.083516
0.0300022
0.251705
0.475591
0.599819
0.570243
0.392264
0.133616
-0.0919629
-0.180289
-0.0912205
0.134585
0.393919
0.571504
0.592168
0.439465
0.16115
-0.132806
-0.315543
-0.3093
-0.117566
0.17627
0.442439
0.568564
0.503213
0.264128
-0.059215
-0.330785
-0.435444
-0.330785
-0.059215
0.264128
0.503213
0.568564
0.442439
0.17627
-0.117566
-0.3093
-0.315543
-0.132806
0.16115
0.439465
0.592168
0.571504
0.393919
0.134585
-0.0912205
-0.180289
-0.0919629
0.133616
0.392264
0.570243
0.599819
0.475591
0.251705
0.0300022
-0.083516
-0.0339396
0.154875
0.391238
0.56546
0.606374
0.502529
0.300669
0.0948293
-0.0137505
0.0290024
0.201169
0.416366
0.572836
0.606306
0.508639
0.325273
0.143615
0.0548713
0.103818
0.264135
0.453899
0.583852
0.602425
0.507899
0.344505
0.191149
0.126133
0.182793
0.330594
0.494259
0.598714
0.604027
0.511212
0.359725
0.220333
-0.246496
-0.145405
0.10883
0.391263
0.566816
0.556771
0.362465
0.0666648
-0.191357
-0.286342
-0.172822
0.0942981
0.382983
0.552774
0.524264
0.30497
-0.00966115
-0.269411
-0.34843
-0.209325
0.0815721
0.381801
0.546577
0.499491
0.256566
-0.0751204
-0.337509
-0.405936
-0.249446
0.0587664
0.370569
0.5385
0.486795
0.233781
-0.110407
-0.384819
-0.463024
-0.311568
0.0011106
0.329502
0.522197
0.495027
0.25529
-0.0981311
-0.406643
-0.533493
-0.427014
-0.132695
0.220121
0.473891
0.521051
0.338968
-0.00548858
-0.367915
-0.592507
-0.590147
-0.36352
-0.00546508
0.327971
0.493649
0.424966
0.145941
-0.230737
-0.54284
-0.661772
-0.54284
-0.230737
0.145941
0.424966
0.493649
0.327971
-0.00546508
-0.36352
-0.590147
-0.592507
-0.367915
-0.00548858
0.338968
0.521051
0.473891
0.220121
-0.132695
-0.427014
-0.533493
-0.406643
-0.0981311
0.25529
0.495027
0.522197
0.329502
0.0011106
-0.311568
-0.463024
-0.384819
-0.110407
0.233781
0.486795
0.5385
0.370569
0.0587664
-0.249446
-0.405936
-0.337509
-0.0751204
0.256566
0.499491
0.546577
0.381801
0.0815721
-0.209325
-0.34843
-0.269411
-0.00966115
0.30497
0.524264
0.552774
0.382983
0.0942981
-0.172822
-0.286342
-0.191357
0.0666648
0.362465
0.556771
0.566816
0.391263
0.10883
-0.145405
-0.573823
-0.444894
-0.116393
0.254872
0.489332
0.479226
0.227321
-0.152882
-0.478927
-0.59694
-0.454405
-0.115738
0.256711
0.481349
0.453241
0.182721
-0.206156
-0.525255
-0.624747
-0.460932
-0.107427
0.266801
0.48049
0.43498
0.149011
-0.245719
-0.559397
-0.647501
-0.472672
-0.112209
0.264259
0.477681
0.432221
0.147109
-0.248431
-0.567802
-0.667575
-0.507202
-0.155279
0.228
0.465411
0.454228
0.199545
-0.188027
-0.531756
-0.681146
-0.577597
-0.263315
0.126989
0.419645
0.492311
0.31836
-0.0309042
-0.403461
-0.637027
-0.638982
-0.40997
-0.0422913
0.304947
0.48387
0.425751
0.155106
-0.215088
-0.523181
-0.640812
-0.523181
-0.215088
0.155106
0.425751
0.48387
0.304947
-0.0422913
-0.40997
-0.638982
-0.637027
-0.403461
-0.0309042
0.31836
0.492311
0.419645
0.126989
-0.263315
-0.577597
-0.681146
-0.531756
-0.188027
0.199545
0.454228
0.465411
0.228
-0.155279
-0.507202
-0.667575
-0.567802
-0.248431
0.147109
0.432221
0.477681
0.264259
-0.112209
-0.472672
-0.647501
-0.559397
-0.245719
0.149011
0.43498
0.48049
0.266801
-0.107427
-0.460932
-0.624747
-0.525255
-0.206156
0.182721
0.453241
0.481349
0.256711
-0.115738
-0.454405
-0.59694
-0.478927
-0.152882
0.227321
0.479226
0.489332
0.254872
-0.116393
-0.444894
-0.67334
-0.536634
-0.18672
0.211344
0.465117
0.458305
0.194076
-0.205814
-0.547816
-0.671225
-0.521863
-0.16558
0.229083
0.471454
0.451049
0.178006
-0.220133
-0.549766
-0.65628
-0.493048
-0.13257
0.254221
0.4819
0.448654
0.171078
-0.221479
-0.539709
-0.636276
-0.469644
-0.113363
0.265527
0.488875
0.460051
0.194405
-0.186687
-0.503153
-0.611219
-0.465589
-0.129195
0.244623
0.485255
0.493084
0.269757
-0.0860616
-0.411697
-0.561947
-0.475223
-0.188228
0.174015
0.451964
0.534731
0.398096
0.102425
-0.222074
-0.430723
-0.435594
-0.235744
0.084142
0.384891
0.542867
0.502754
0.284556
-0.0212314
-0.280841
-0.381323
-0.280841
-0.0212314
0.284556
0.502754
0.542867
0.384891
0.084142
-0.235744
-0.435594
-0.430723
-0.222074
0.102425
0.398096
0.534731
0.451964
0.174015
-0.188228
-0.475223
-0.561947
-0.411697
-0.0860616
0.269757
0.493084
0.485255
0.244623
-0.129195
-0.465589
-0.611219
-0.503153
-0.186687
0.194405
0.460051
0.488875
0.265527
-0.113363
-0.469644
-0.636276
-0.539709
-0.221479
0.171078
0.448654
0.4819
0.254221
-0.13257
-0.493048
-0.65628
-0.549766
-0.220133
0.178006
0.451049
0.471454
0.229083
-0.16558
-0.521863
-0.671225
-0.547816
-0.205814
0.194076
0.458305
0.465117
0.211344
-0.18672
-0.536634
-0.50331
-0.378791
-0.0624308
0.29432
0.521413
0.518743
0.289138
-0.0631191
-0.3683
-0.479605
-0.345517
-0.0278204
0.321318
0.536965
0.526363
0.297566
-0.0441639
-0.333556
-0.431101
-0.291577
0.0196396
0.352827
0.552216
0.534361
0.31116
-0.0152305
-0.288328
-0.377524
-0.24186
0.0549
0.371097
0.561897
0.550498
0.346844
0.0422764
-0.220372
-0.317579
-0.205575
0.063203
0.362785
0.55967
0.578512
0.419422
0.152457
-0.101458
-0.225499
-0.164911
0.0511314
0.323168
0.53256
0.601974
0.516307
0.316362
0.0899551
-0.0596628
-0.0647011
0.0754887
0.295738
0.498499
0.604936
0.583166
0.446497
0.249873
0.0786097
0.0111208
0.0786097
0.249873
0.446497
0.583166
0.604936
0.498499
0.295738
0.0754887
-0.0647011
-0.0596628
0.0899551
0.316362
0.516307
0.601974
0.53256
0.323168
0.0511314
-0.164911
-0.225499
-0.101458
0.152457
0.419422
0.578512
0.55967
0.362785
0.063203
-0.205575
-0.317579
-0.220372
0.0422764
0.346844
0.550498
0.561897
0.371097
0.0549
-0.24186
-0.377524
-0.288328
-0.0152305
0.31116
0.534361
0.552216
0.352827
0.0196396
-0.291577
-0.431101
-0.333556
-0.0441639
0.297566
0.526363
0.536965
0.321318
-0.0278204
-0.345517
-0.479605
-0.3683
-0.0631191
0.289138
0.518743
0.521413
0.29432
-0.0624308
-0.378791
-0.137591
-0.045473
0.185172
0.440469
0.601347
0.6013
0.442664
0.194952
-0.0239662
-0.105055
-0.00796981
0.218641
0.462996
0.612939
0.609204
0.457655
0.225878
0.0245991
-0.0457377
0.0495762
0.261631
0.485248
0.619088
0.612292
0.472602
0.262095
0.08051
0.0178599
0.104606
0.295611
0.49635
0.617697
0.615947
0.497518
0.314157
0.15067
0.0866482
0.152492
0.312958
0.488572
0.602975
0.617991
0.535928
0.392978
0.252801
0.181785
0.2129
0.326875
0.465066
0.566758
0.600268
0.564658
0.479357
0.381067
0.315505
0.314468
0.37556
0.464233
0.538398
0.573694
0.566571
0.523384
0.458539
0.398782
0.374341
0.398782
0.458539
0.523384
0.566571
0.573694
0.538398
0.464233
0.37556
0.314468
0.315505
0.381067
0.479357
0.564658
0.600268
0.566758
0.465066
0.326875
0.2129
0.181785
0.252801
0.392978
0.535928
0.617991
0.602975
0.488572
0.312958
0.152492
0.0866482
0.15067
0.314157
0.497518
0.615947
0.617697
0.49635
0.295611
0.104606
0.0178599
0.08051
0.262095
0.472602
0.612292
0.619088
0.485248
0.261631
0.0495762
-0.0457377
0.0245991
0.225878
0.457655
0.609204
0.612939
0.462996
0.218641
-0.00796981
-0.105055
-0.0239662
0.194952
0.442664
0.6013
0.601347
0.440469
0.185172
-0.045473
0.260539
0.304948
0.413437
0.529099
0.599469
0.599422
0.531078
0.422063
0.323276
0.286715
0.332114
0.433005
0.535824
0.59515
0.592557
0.532933
0.440973
0.359587
0.331733
0.371999
0.455439
0.536434
0.580078
0.575575
0.529152
0.459673
0.399017
0.379498
0.411191
0.472851
0.528932
0.5562
0.551825
0.522768
0.480081
0.442156
0.42958
0.448865
0.484178
0.511043
0.518559
0.513565
0.505711
0.49788
0.491546
0.49148
0.498529
0.502131
0.489342
0.463159
0.444327
0.451349
0.483098
0.522486
0.551981
0.560589
0.540301
0.489213
0.423907
0.37877
0.382678
0.43544
0.508182
0.56575
0.586863
0.56575
0.508182
0.43544
0.382678
0.37877
0.423907
0.489213
0.540301
0.560589
0.551981
0.522486
0.483098
0.451349
0.444327
0.463159
0.489342
0.502131
0.498529
0.49148
0.491546
0.49788
0.505711
0.513565
0.518559
0.511043
0.484178
0.448865
0.42958
0.442156
0.480081
0.522768
0.551825
0.5562
0.528932
0.472851
0.411191
0.379498
0.399017
0.459673
0.529152
0.575575
0.580078
0.536434
0.455439
0.371999
0.331733
0.359587
0.440973
0.532933
0.592557
0.59515
0.535824
0.433005
0.332114
0.286715
0.323276
0.422063
0.531078
0.599422
0.599469
0.529099
0.413437
0.304948
0.531892
0.523128
0.496506
0.458279
0.427795
0.425394
0.453567
0.494968
0.528706
0.543457
0.534471
0.499502
0.447532
0.404355
0.397116
0.431691
0.488351
0.538551
0.562136
0.549245
0.498605
0.425854
0.366269
0.354767
0.399623
0.476664
0.547579
0.582151
0.565307
0.497107
0.400192
0.320082
0.300986
0.355226
0.454903
0.551104
0.601789
0.584904
0.499794
0.374011
0.263491
0.225645
0.282662
0.406985
0.538533
0.61879
0.613332
0.516129
0.355759
0.198183
0.119611
0.161482
0.304844
0.480469
0.607857
0.632832
0.539958
0.356703
0.156392
0.0320307
0.0449308
0.189465
0.395333
0.566575
0.631711
0.566575
0.395333
0.189465
0.0449308
0.0320307
0.156392
0.356703
0.539958
0.632832
0.607857
0.480469
0.304844
0.161482
0.119611
0.198183
0.355759
0.516129
0.613332
0.61879
0.538533
0.406985
0.282662
0.225645
0.263491
0.374011
0.499794
0.584904
0.601789
0.551104
0.454903
0.355226
0.300986
0.320082
0.400192
0.497107
0.565307
0.582151
0.547579
0.476664
0.399623
0.354767
0.366269
0.425854
0.498605
0.549245
0.562136
0.538551
0.488351
0.431691
0.397116
0.404355
0.447532
0.499502
0.534471
0.543457
0.528706
0.494968
0.453567
0.425394
0.427795
0.458279
0.496506
0.523128
0.62033
0.560384
0.402917
0.214435
0.0845547
0.0785964
0.199949
0.387826
0.551564
0.618903
0.561301
0.397787
0.195973
0.0510634
0.0355391
0.15782
0.357179
0.536877
0.61582
0.559315
0.385324
0.165611
0.00326046
-0.0214666
0.104258
0.318882
0.518756
0.613192
0.560675
0.377044
0.136981
-0.0485285
-0.0895574
0.034208
0.263523
0.488996
0.608509
0.570111
0.382837
0.119609
-0.101536
-0.17628
-0.0691318
0.170363
0.42993
0.591939
0.586657
0.409014
0.123408
-0.147305
-0.278986
-0.211488
0.0248421
0.320389
0.538984
0.585554
0.436472
0.145165
-0.164427
-0.351199
-0.33108
-0.113052
0.203235
0.471345
0.574419
0.471345
0.203235
-0.113052
-0.33108
-0.351199
-0.164427
0.145165
0.436472
0.585554
0.538984
0.320389
0.0248421
-0.211488
-0.278986
-0.147305
0.123408
0.409014
0.586657
0.591939
0.42993
0.170363
-0.0691318
-0.17628
-0.101536
0.119609
0.382837
0.570111
0.608509
0.488996
0.263523
0.034208
-0.0895574
-0.0485285
0.136981
0.377044
0.560675
0.613192
0.518756
0.318882
0.104258
-0.0214666
0.00326046
0.165611
0.385324
0.559315
0.61582
0.536877
0.357179
0.15782
0.0355391
0.0510634
0.195973
0.397787
0.561301
0.618903
0.551564
0.387826
0.199949
0.0785964
0.0845547
0.214435
0.402917
0.560384
0.580104
0.477033
0.209806
-0.102795
-0.313026
-0.322215
-0.126152
0.183018
0.457753
0.572747
0.478118
0.210391
-0.11276
-0.339217
-0.363151
-0.17366
0.140946
0.430373
0.560921
0.474926
0.205008
-0.130466
-0.373993
-0.412664
-0.229267
0.0920139
0.398854
0.549241
0.476835
0.208282
-0.139996
-0.406029
-0.468108
-0.299305
0.0248569
0.353314
0.534822
0.490068
0.233517
-0.126936
-0.4268
-0.530956
-0.395279
-0.0782952
0.276071
0.505453
0.510117
0.284094
-0.0814913
-0.423322
-0.588177
-0.506908
-0.213596
0.161637
0.445809
0.513205
0.33354
-0.021069
-0.392637
-0.612691
-0.587902
-0.328524
0.0529641
0.380771
0.507722
0.380771
0.0529641
-0.328524
-0.587902
-0.612691
-0.392637
-0.021069
0.33354
0.513205
0.445809
0.161637
-0.213596
-0.506908
-0.588177
-0.423322
-0.0814913
0.284094
0.510117
0.505453
0.276071
-0.0782952
-0.395279
-0.530956
-0.4268
-0.126936
0.233517
0.490068
0.534822
0.353314
0.0248569
-0.299305
-0.468108
-0.406029
-0.139996
0.208282
0.476835
0.549241
0.398854
0.0920139
-0.229267
-0.412664
-0.373993
-0.130466
0.205008
0.474926
0.560921
0.430373
0.140946
-0.17366
-0.363151
-0.339217
-0.11276
0.210391
0.478118
0.572747
0.457753
0.183018
-0.126152
-0.322215
-0.313026
-0.102795
0.209806
0.477033
0.515696
0.38601
0.0521577
-0.333095
-0.588269
-0.599286
-0.361543
0.0189346
0.362411
0.509485
0.3958
0.0689502
-0.322132
-0.5931
-0.622698
-0.398499
-0.0195706
0.33557
0.500978
0.403726
0.0845023
-0.311505
-0.597708
-0.64631
-0.437184
-0.0614362
0.305576
0.492553
0.417414
0.11144
-0.287593
-0.592835
-0.66873
-0.484301
-0.117987
0.26255
0.481163
0.442951
0.16356
-0.234033
-0.565932
-0.685184
-0.543574
-0.199489
0.193942
0.456305
0.474309
0.240841
-0.143903
-0.503974
-0.678093
-0.594785
-0.287781
0.109286
0.4143
0.493322
0.314539
-0.0457458
-0.423485
-0.646263
-0.619921
-0.355028
0.0345889
0.369762
0.499656
0.369762
0.0345889
-0.355028
-0.619921
-0.646263
-0.423485
-0.0457458
0.314539
0.493322
0.4143
0.109286
-0.287781
-0.594785
-0.678093
-0.503974
-0.143903
0.240841
0.474309
0.456305
0.193942
-0.199489
-0.543574
-0.685184
-0.565932
-0.234033
0.16356
0.442951
0.481163
0.26255
-0.117987
-0.484301
-0.66873
-0.592835
-0.287593
0.11144
0.417414
0.492553
0.305576
-0.0614362
-0.437184
-0.64631
-0.597708
-0.311505
0.0845023
0.403726
0.500978
0.33557
-0.0195706
-0.398499
-0.622698
-0.5931
-0.322132
0.0689502
0.3958
0.509485
0.362411
0.0189346
-0.361543
-0.599286
-0.588269
-0.333095
0.0521577
0.38601
0.510191
0.377546
0.0362667
-0.357088
-0.61726
-0.628502
-0.386077
0.00276191
0.355153
0.508543
0.397432
0.0698824
-0.323884
-0.597803
-0.629171
-0.404701
-0.0231851
0.336512
0.508073
0.418413
0.106944
-0.283993
-0.56975
-0.621873
-0.418412
-0.0483036
0.316219
0.507162
0.443912
0.155084
-0.228791
-0.527576
-0.606922
-0.433592
-0.0823647
0.285764
0.502697
0.478156
0.225279
-0.14382
-0.458001
-0.575622
-0.447326
-0.127746
0.23939
0.487839
0.514799
0.313586
-0.0278471
-0.352808
-0.512508
-0.437975
-0.161014
0.194809
0.467881
0.543132
0.394207
0.0855694
-0.242947
-0.438846
-0.414703
-0.180844
0.157933
0.445678
0.556451
0.445678
0.157933
-0.180844
-0.414703
-0.438846
-0.242947
0.0855694
0.394207
0.543132
0.467881
0.194809
-0.161014
-0.437975
-0.512508
-0.352808
-0.0278471
0.313586
0.514799
0.487839
0.23939
-0.127746
-0.447326
-0.575622
-0.458001
-0.14382
0.225279
0.478156
0.502697
0.285764
-0.0823647
-0.433592
-0.606922
-0.527576
-0.228791
0.155084
0.443912
0.507162
0.316219
-0.0483036
-0.418412
-0.621873
-0.56975
-0.283993
0.106944
0.418413
0.508073
0.336512
-0.0231851
-0.404701
-0.629171
-0.597803
-0.323884
0.0698824
0.397432
0.508543
0.355153
0.00276191
-0.386077
-0.628502
-0.61726
-0.357088
0.0362667
0.377546
0.57203
0.460846
0.172959
-0.162869
-0.387967
-0.397816
-0.187947
0.144601
0.442959
0.573705
0.484491
0.213555
-0.117647
-0.352261
-0.380592
-0.189818
0.131701
0.432271
0.577381
0.509544
0.259022
-0.0624643
-0.303172
-0.350211
-0.182366
0.122419
0.420605
0.57908
0.535847
0.311856
0.00583045
-0.239226
-0.308534
-0.170907
0.109665
0.401789
0.57582
0.564759
0.377837
0.09627
-0.150396
-0.24677
-0.14927
0.096378
0.375531
0.564376
0.590427
0.449769
0.203472
-0.0366216
-0.157212
-0.102142
0.102153
0.359502
0.554252
0.609699
0.509931
0.297723
0.0671637
-0.0727208
-0.0549022
0.111929
0.348011
0.544405
0.619163
0.544405
0.348011
0.111929
-0.0549022
-0.0727208
0.0671637
0.297723
0.509931
0.609699
0.554252
0.359502
0.102153
-0.102142
-0.157212
-0.0366216
0.203472
0.449769
0.590427
0.564376
0.375531
0.096378
-0.14927
-0.24677
-0.150396
0.09627
0.377837
0.564759
0.57582
0.401789
0.109665
-0.170907
-0.308534
-0.239226
0.00583045
0.311856
0.535847
0.57908
0.420605
0.122419
-0.182366
-0.350211
-0.303172
-0.0624643
0.259022
0.509544
0.577381
0.432271
0.131701
-0.189818
-0.380592
-0.352261
-0.117647
0.213555
0.484491
0.573705
0.442959
0.144601
-0.187947
-0.397816
-0.387967
-0.162869
0.172959
0.460846
0.629178
0.557713
0.370673
0.148207
-0.00398065
-0.0106805
0.131338
0.351747
0.545618
0.630235
0.575026
0.402988
0.188205
0.0325412
0.0129741
0.138821
0.347058
0.537883
0.629775
0.590293
0.437262
0.236173
0.0816089
0.0498401
0.155991
0.346097
0.528354
0.624861
0.602304
0.472846
0.291233
0.141584
0.097261
0.179348
0.345129
0.513714
0.612996
0.609694
0.509957
0.355587
0.216557
0.160555
0.214461
0.348824
0.496543
0.593566
0.607874
0.540383
0.419719
0.299374
0.238095
0.266433
0.367625
0.489146
0.57661
0.600564
0.557948
0.466186
0.363776
0.300363
0.309142
0.384538
0.486325
0.566978
0.596714
0.566978
0.486325
0.384538
0.309142
0.300363
0.363776
0.466186
0.557948
0.600564
0.57661
0.489146
0.367625
0.266433
0.238095
0.299374
0.419719
0.540383
0.607874
0.593566
0.496543
0.348824
0.214461
0.160555
0.216557
0.355587
0.509957
0.609694
0.612996
0.513714
0.345129
0.179348
0.097261
0.141584
0.291233
0.472846
0.602304
0.624861
0.528354
0.346097
0.155991
0.0498401
0.0816089
0.236173
0.437262
0.590293
0.629775
0.537883
0.347058
0.138821
0.0129741
0.0325412
0.188205
0.402988
0.575026
0.630235
0.545618
0.351747
0.131338
-0.0106805
-0.00398065
0.148207
0.370673
0.557713
0.574641
0.552462
0.491845
0.41522
0.360243
0.358218
0.410111
0.485664
0.546954
0.571611
0.554901
0.502768
0.434357
0.382673
0.376941
0.41986
0.484981
0.538259
0.560599
0.549484
0.50999
0.455736
0.4122
0.404303
0.435996
0.485905
0.526029
0.542575
0.536495
0.51224
0.476833
0.445984
0.438086
0.457404
0.488182
0.50994
0.516079
0.512954
0.50569
0.494347
0.48252
0.479117
0.486938
0.495695
0.493401
0.482332
0.476468
0.483916
0.498995
0.512137
0.519962
0.521174
0.50972
0.482155
0.450305
0.43645
0.452552
0.488796
0.524298
0.544463
0.544145
0.521121
0.478853
0.435286
0.416523
0.435286
0.478853
0.521121
0.544145
0.544463
0.524298
0.488796
0.452552
0.43645
0.450305
0.482155
0.50972
0.521174
0.519962
0.512137
0.498995
0.483916
0.476468
0.482332
0.493401
0.495695
0.486938
0.479117
0.48252
0.494347
0.50569
0.512954
0.516079
0.50994
0.488182
0.457404
0.438086
0.445984
0.476833
0.51224
0.536495
0.542575
0.526029
0.485905
0.435996
0.404303
0.4122
0.455736
0.50999
0.549484
0.560599
0.538259
0.484981
0.41986
0.376941
0.382673
0.434357
0.502768
0.554901
0.571611
0.546954
0.485664
0.410111
0.358218
0.360243
0.41522
0.491845
0.552462
0.336934
0.367231
0.44073
0.518653
0.567293
0.570995
0.528003
0.450449
0.370322
0.329242
0.351113
0.424139
0.509795
0.569243
0.580798
0.539138
0.455239
0.362609
0.308
0.322385
0.398715
0.497113
0.57169
0.59317
0.552198
0.459213
0.350382
0.278888
0.283971
0.364144
0.478216
0.572127
0.607174
0.568484
0.465204
0.336166
0.242166
0.232997
0.315118
0.447181
0.565915
0.620536
0.588231
0.475465
0.3232
0.200598
0.170261
0.249448
0.398761
0.545648
0.624994
0.60376
0.484912
0.311561
0.1611
0.108496
0.181564
0.343736
0.515101
0.617976
0.610407
0.492957
0.310484
0.145147
0.0787403
0.145147
0.310484
0.492957
0.610407
0.617976
0.515101
0.343736
0.181564
0.108496
0.1611
0.311561
0.484912
0.60376
0.624994
0.545648
0.398761
0.249448
0.170261
0.200598
0.3232
0.475465
0.588231
0.620536
0.565915
0.447181
0.315118
0.232997
0.242166
0.336166
0.465204
0.568484
0.607174
0.572127
0.478216
0.364144
0.283971
0.278888
0.350382
0.459213
0.552198
0.59317
0.57169
0.497113
0.398715
0.322385
0.308
0.362609
0.455239
0.539138
0.580798
0.569243
0.509795
0.424139
0.351113
0.329242
0.370322
0.450449
0.528003
0.570995
0.567293
0.518653
0.44073
0.367231
-0.0521756
0.0271551
0.226526
0.449902
0.596186
0.606238
0.475552
0.254871
0.0419256
-0.0614634
-0.00491242
0.184333
0.414834
0.580124
0.610815
0.493386
0.272071
0.0432702
-0.0844959
-0.0493173
0.132194
0.372676
0.559802
0.613164
0.509811
0.287548
0.0414992
-0.112852
-0.101394
0.0708377
0.321727
0.533494
0.613552
0.527836
0.306198
0.0412652
-0.144319
-0.162358
-0.00386023
0.256544
0.496249
0.608645
0.546053
0.328574
0.0449254
-0.175287
-0.22823
-0.0887662
0.178017
0.445759
0.592705
0.555976
0.34592
0.0477795
-0.202571
-0.287188
-0.166511
0.103345
0.393981
0.571139
0.559045
0.360594
0.0582624
-0.208867
-0.314234
-0.208867
0.0582624
0.360594
0.559045
0.571139
0.393981
0.103345
-0.166511
-0.287188
-0.202571
0.0477795
0.34592
0.555976
0.592705
0.445759
0.178017
-0.0887662
-0.22823
-0.175287
0.0449254
0.328574
0.546053
0.608645
0.496249
0.256544
-0.00386023
-0.162358
-0.144319
0.0412652
0.306198
0.527836
0.613552
0.533494
0.321727
0.0708377
-0.101394
-0.112852
0.0414992
0.287548
0.509811
0.613164
0.559802
0.372676
0.132194
-0.0493173
-0.0844959
0.0432702
0.272071
0.493386
0.610815
0.580124
0.414834
0.184333
-0.00491242
-0.0614634
0.0419256
0.254871
0.475552
0.606238
0.596186
0.449902
0.226526
0.0271551
-0.444794
-0.329601
-0.0354383
0.301255
0.525412
0.541471
0.342439
0.0111152
-0.30175
-0.45093
-0.369764
-0.0942965
0.248286
0.498495
0.54697
0.37275
0.047144
-0.282987
-0.464323
-0.415864
-0.158942
0.189085
0.465595
0.547697
0.400171
0.0824536
-0.263613
-0.477532
-0.463896
-0.228697
0.122336
0.425531
0.54447
0.428193
0.122401
-0.238317
-0.487145
-0.513054
-0.304982
0.0452584
0.375171
0.534488
0.454585
0.165787
-0.20647
-0.490172
-0.557894
-0.380657
-0.0355284
0.317799
0.515826
0.471981
0.202131
-0.176689
-0.48853
-0.591692
-0.441846
-0.103628
0.266712
0.495688
0.482144
0.23072
-0.14831
-0.477462
-0.605552
-0.477462
-0.14831
0.23072
0.482144
0.495688
0.266712
-0.103628
-0.441846
-0.591692
-0.48853
-0.176689
0.202131
0.471981
0.515826
0.317799
-0.0355284
-0.380657
-0.557894
-0.490172
-0.20647
0.165787
0.454585
0.534488
0.375171
0.0452584
-0.304982
-0.513054
-0.487145
-0.238317
0.122401
0.428193
0.54447
0.425531
0.122336
-0.228697
-0.463896
-0.477532
-0.263613
0.0824536
0.400171
0.547697
0.465595
0.189085
-0.158942
-0.415864
-0.464323
-0.282987
0.047144
0.37275
0.54697
0.498495
0.248286
-0.0942965
-0.369764
-0.45093
-0.30175
0.0111152
0.342439
0.541471
0.525412
0.301255
-0.0354383
-0.329601
-0.664666
-0.533034
-0.193605
0.199876
0.464516
0.4845
0.25137
-0.134396
-0.494563
-0.66472
-0.572763
-0.257187
0.140592
0.434849
0.494538
0.294366
-0.0801174
-0.456683
-0.662261
-0.609204
-0.319584
0.0787214
0.399917
0.499132
0.334273
-0.0247396
-0.413929
-0.653613
-0.640956
-0.381294
0.0128352
0.358726
0.498961
0.373833
0.035942
-0.361896
-0.635351
-0.665881
-0.441127
-0.0566689
0.310788
0.492533
0.410498
0.098998
-0.302294
-0.606439
-0.679247
-0.490717
-0.120055
0.263298
0.481333
0.438879
0.153818
-0.246305
-0.573675
-0.680938
-0.523164
-0.1665
0.226167
0.470552
0.458258
0.194555
-0.202595
-0.545966
-0.679098
-0.545966
-0.202595
0.194555
0.458258
0.470552
0.226167
-0.1665
-0.523164
-0.680938
-0.573675
-0.246305
0.153818
0.438879
0.481333
0.263298
-0.120055
-0.490717
-0.679247
-0.606439
-0.302294
0.098998
0.410498
0.492533
0.310788
-0.0566689
-0.441127
-0.665881
-0.635351
-0.361896
0.035942
0.373833
0.498961
0.358726
0.0128352
-0.381294
-0.640956
-0.653613
-0.413929
-0.0247396
0.334273
0.499132
0.399917
0.0787214
-0.319584
-0.609204
-0.662261
-0.456683
-0.0801174
0.294366
0.494538
0.434849
0.140592
-0.257187
-0.572763
-0.66472
-0.494563
-0.134396
0.25137
0.4845
0.464516
0.199876
-0.193605
-0.533034
-0.615061
-0.48671
-0.156498
0.225233
0.481738
0.501993
0.277912
-0.0944808