# vtk DataFile Version 3.0
PFC simulation results
ASCII
DATASET STRUCTURED_POINTS
DIMENSIONS 128 128 1
ORIGIN 0 0 0
SPACING 1 1 1
POINT_DATA 16384
SCALARS psi double
LOOKUP_TABLE default
641.318
6717.58
1938.63
17421.8
-9850.55
-6172.63
-8991.95
-3307.17
1405.64
-1935.89
-4394.78
6305.96
5756.2
-1335.97
2909.02
-23069
1887.47
6594.95
3992.75
6749.77
-3960.83
5312.7
4909.86
4441.27
-11364.5
-1329.02
-8176.65
16675.8
2474.6
-7641.31
-805.244
-12442.7
-12285
-3556.41
-15657.1
-7359.09
13001.7
17730
1197.23
16073.2
-19099.2
-9510.59
-11644.5
-13126.9
-8288.41
-470.693
4645.42
-5163.23
-10171.8
-10026.4
2702.74
8222.99
7551.09
3864.92
15536
-11143.9
8975.07
-1054.48
-4076.77
-7206.22
4138.15
4456.68
7670.3
1494.08
6226.9
7891.6
-3363.54
-9504.24
-6493.4
8731.44
15462.6
9754.01
-9355.89
-12765.2
-7073.61
-13171.5
14055.4
15150.3
8936.61
19929.3
14555.4
-4040.25
-6352.85
-25261.8
-79.6599
-9236.29
2612.83
-7052.28
10408.4
-9101.22
-650.503
-6382.61
-4071.35
10898
5727.92
-3357.18
11742
9463.52
-2831.39
-18706.7
-13320.4
-5170.14
5431.48
-13614
6398.31
-2062.65
11061.9
100.496
-19498.9
-15568.2
-5799.59
-2479.12
11878.6
-11713.2
-3564.11
6212.35
-19992.8
18519.4
-1346.92
10449.9
-5281.19
-6581.77
-4079.65
-2310.03
9830.12
-21639.5
-11427.5
-1312.59
23172
-5981.98
4848.85
2036.13
-978.162
7788.09
22931.9
1708.72
-3012.7
-1211.13
4586.5
-3278.12
3724.52
-2132.17
9952.63
2906.53
9409
18392.7
11167.2
4198.04
10155.6
-595.737
1541.46
15197.9
-398.19
-8326.41
-5112.41
4258.71
-1660.31
-4595.6
3281.33
2915.23
7725.39
2196.29
6805.14
-5228.45
1937.48
16924.1
-14571.7
-322.311
-1953.57
-4286.26
-7636.68
6944.6
-3682.83
-2894.51
14026.6
7618.93
17905.1
-6356.13
8436.06
4763.01
-2639.96
-12105.7
-7391.38
-17212.7
-11566.2
5247.77
-9354.66
1749.99
5991.12
221.467
-7967.44
-5129
8033.3
9200.27
-4632.72
13628.6
12159.4
-4290.06
-2001.56
-8360.14
-7428.39
-2504.48
-6075.34
-9937.56
-1978.61
14629.7
3656.7
998.611
-8610.81
-9100.41
-11760.2
-5919.88
-3735.35
10101.3
66.5747
-7930
9483.22
-6741.69
4104
-1972.5
-5609.65
11926
-219.997
-7385.93
-12604.7
-487.854
-9283.38
14816.7
-7618.29
10561.6
11798.1
-4602.41
-2110.17
-15344.4
-7381.27
6182.05
6679
-13872.4
-2044.38
-5696.49
-8436.48
-4199.13
-4733.49
-5071.15
-2752.15
8549.33
2021.02
3654.88
-2056.81
-19780.6
846.653
-10308.9
6094.58
-4865.53
-887.918
-5631.33
6029.56
10602.7
2786.83
749.066
9477.08
5962.72
5887.76
13705.4
-607.444
-4304.84
-2675.29
994.354
5750.03
17829.1
154.83
14854.7
1176.68
-9958.93
2455.54
-728.358
-11817.6
394.652
-16814.3
4306.08
7659.04
5555.2
-1098.96
-6118.74
115.995
-4163.59
-5653.77
1542.83
12639.5
15138.1
-5719.24
7067.64
-225.675
14784
1843.24
11711.8
-11089.7
-12015.1
1123.99
4895.76
-6156.38
-7413.08
-12627.4
-8687.04
1483.72
-3560.7
-4942.7
-5363.11
-3292.59
-1657.29
-8451.17
-5913.06
-5769.78
-3041.85
-5268.31
8186.4
-3674.67
-3051.34
-8263.23
-16875.5
-7091.99
3407.94
-3664.5
2986.13
-11415.1
-4162.22
6009.46
-1734.6
-5565.02
7617.24
-18969.2
6707.27
10343.3
-9518.54
2186.19
6671.54
-5840.14
7723.78
1658.82
7209.67
13483.5
-1309.22
-1197.4
-4041.68
-1963.09
-7259.81
-3308.42
-980.376
9925.07
6746.03
-6418.46
11811.3
7298.32
-7797.99
3925.36
1844.35
7904.59
-15075.3
12298.2
3006.79
1049.73
-6599.55
-7909.62
-126.073
3874.49
-5576.41
-1434.43
-7447.02
-2800.1
2013.56
14486.3
-2681.41
11288
-26.4573
-7778.37
-15831.3
5632.64
-18826.4
5023
-9655.79
4098.05
1275.95
-5339.12
-10499.7
18356.8
-1779.86
-588.607
3995.15
1131.66
2178.53
-3332.52
1579.31
-6688.29
-8484.83
-4713.94
-1501.15
-8586.39
4819.38
-1834.88
-4506.46
4916.37
6745.96
3210.24
-12220.4
-15604.2
-8254.73
-6344.17
-4591.12
-18708.9
-8500.33
-8575
15884.9
7214.97
-6744.03
1061.82
6322.9
12573.6
3570.85
7060.38
19465.5
3718.36
-10157
-9973.76
19319.9
5522.11
2145.98
-6648.12
-6743.34
2818.1
22427.1
14354.6
4946.91
4958.35
2838
18856.1
5959.18
785.37
11712.4
-125.786
-17960.7
-3295.4
8716.49
4271.08
-2949.83
260.391
-1219.1
14144
5971.82
5238.09
-9894.54
-14807.7
-5509.67
10812.8
-360.3
4095.7
-13942.2
-1329.47
321.682
2450.63
-19329
-3811.38
4371.69
-4827.36
-5632.65
5939.05
-13889.7
188.87
1689.74
-18438.8
-7484.69
1393.76
-16343.4
1007.01
-21084.4
1047.77
2366.79
-3858.01
-8680.19
2724.71
-7001
-1921.49
-2148.83
-8152.6
-507.412
5625.64
956.035
-11520.2
7661.09
3290.1
-5114.23
-16049.7
-655.527
7821.21
8874.31
12889.5
-12075.1
-10270.3
10125.7
21638.1
9700.64
5014.89
2358.09
5270.45
-1786.41
340.779
14587.2
2729.93
10440.7
-8470.87
-15565.6
9257.31
7247.71
11065.8
-8371.47
-6894.96
1949.31
-1278.29
-12275.9
6713.41
-2456.8
-8163.7
-6989.27
-4529.59
5868.09
-6914.4
-5858.48
-5221.07
739.046
17914.5
5985.58
2089.48
-12097
1405.12
3843.33
3640.27
8264.57
-7314.8
3530.11
2499.69
-9553.26
-12966.5
-4847.09
-6300.88
10200.4
11199.3
-6801.31
8509.29
11881.7
14202.8
-4092.17
-7382.68
8135.47
-9034.61
379.95
-16172.6
-514.88
5048.17
9128.29
-10673.1
10814.9
-9332.85
11412.8
9120.49
2260.75
2331.44
12371.3
-12563
9917.51
11953.6
-1316.35
-18794.4
-12126.6
-2279.25
-3611.82
5379.7
-5383.32
-1864.16
2808.6
7901.91
6265.3
633.775
7379.83
-1584.38
-5777.57
-8799.57
-569.912
-1172.92
5268.56
-13513.6
-16171
1870.44
1303.15
2082.47
1591.27
888.407
3741.62
-11958
1139.7
-5519.18
2688.21
3669.06
-9364.28
767.888
14994.3
-5239.95
4815.4
-11398.1
-3229.32
-1880.65
-16304.8
2400.12
8569.39
10612.2
-1613.94
6077.71
-9539.31
4491.83
-6028.19
-587.601
-19299.7
7984.64
11661.9
-1002.86
-6942.29
2512.77
24751.9
11589
-5557.74
8614.71
10113.3
5204.08
-7189.73
8393.03
3204.53
4996.34
-7014.3
-8549.22
-5281.12
2264.11
-422.443
-5503.77
-7415.84
-3756.34
-444.893
-5659.78
-6255.26
1804.73
-1618.68
1877.59
1515.42
8.18163
-5411.2
5761.38
4006.76
17264.1
3428.47
11234
2329.45
6742.36
10068
-5632.17
-1104.56
6066.53
6037.82
1444.61
-13596.7
4433.74
-16936
-3466.69
3962.88
2830.09
1191.47
-5763
4230.75
3512.84
-13955.8
-247.726
5875.66
11040
-2384.14
11774.3
9207.32
1779.37
22315
4287.02
416.285
7828.47
-11186.6
-799.953
-4794.18
-2530.7
-8784.56
-1335.47
2206.31
-14868.8
1083.98
-1736.21
3709.81
18671.8
5466.36
-3569.43
-3567.66
-846.64
-5110.72
5719.2
7439.63
-7554.4
-422.999
-8066.53
16551.9
1757.19
-3931.58
256.251
16244.8
-1098.9
-1388.18
6136.5
-6516.7
1788.09
17733.4
-8555.05
7567.95
7330.29
4566.08
-390.894
-17912.5
-10546.1
3075.28
-2708.7
9370.99
11707.3
4391.43
570.199
-6124.93
-11088.2
-5261.2
-1161.54
-6610.76
-12597.9
4306.86
679.694
-9262.8
4020.38
11988.7
6016.76
573.388
-2678.58
11951.7
-16845.8
9385
12824.6
-3799.61
-4420.52
-5202.97
-2711.67
7638.6
-2711.37
-1636.13
7755.06
6238.52
-12782.1
4620.48
-1818.68
-1804.97
15640.7
-15821
962.043
11574
-1003.95
2464.75
-7841.18
-3354.04
6546.85
11.8552
-10320.4
3962.41
-3189.95
7096.33
2233.78
-5571.4
3235.5
814.244
-13178
9754.94
-8905.54
6427.51
-8647.31
-5593.87
-51.2361
11037.7
-4925.06
-4850.32
6117
1121.82
7213.28
-10803.9
411.482
13346.4
2521.17
-1516.56
-10355.1
5246.77
-16232
366.346
-3372.32
1383.3
1881.89
-878.533
3581.12
9955.28
6376.21
6709.68
4156.65
-8881.89
2914.61
3388.4
-2713.54
472.647
-11708.8
11151.5
-978.717
9912.07
-2776.89
3374.35
4890.16
2821.69
8080.13
10712.2
-5155.45
7800.62
-2541.93
6456.41
1526.68
1146.83
-7028.28
2951
-8416.18
-3334.75
-10961.3
4669.49
3781.74
-5894.97
9906.92
2650.3
-13667.8
-807.586
6182.35
7867.86
-8422.77
-7347.74
3569.73
10229
-21908
8073.96
2512.5
6366.06
5578.13
-6684.31
-4676.88
8441.65
-174.982
-3536.4
3854.9
-12929.6
-1921.47
-10848.9
-4866.49
1205.85
-265.205
-11423.5
4967.26
-7722.88
5776.69
-1183.61
2872.84
-12828.9
5218.32
-20024.1
-10180.6
-5437.1
4845.59
-9192.53
6790.06
-146.407
-5568.6
-3157.54
-7002.51
-14998.4
570.42
-2246.28
14497
754.652
1314.45
-3540.96
-9853.73
-8603.62
4183.29
-12982.9
2480.96
-6982.63
1978.37
4486.57
-14209.2
-7103.1
-10447.3
13907.5
-4114.84
5981.34
-12300.7
7788.93
-6109.23
4145.72
570.152
1347.33
10130.7
6008.97
-6452.85
4853.81
10290.4
1297.36
11426.9
-2445.98
3148.13
3213.43
383.111
-1318.76
859.691
26.625
-14043.5
491.832
-7538.43
625.403
-2984.08
-1617.1
-705.296
3332.99
-12797.6
1508.54
-1704.67
-7720.61
11900.2
-2330.68
3741.18
9699.46
-346.591
233.723
-14642.1
-788.921
-2610.45
1296.58
13809.6
-3807
689.054
-6660.71
-3496.35
9354.19
2427.4
14807.5
74.9753
-8032.33
5943.47
4581.59
3530.31
5161.42
-481.148
9439.44
4272.38
-2045.95
1858.97
-2842.43
-594.117
-7846.08
-11077.5
1985.8
6185.85
5086.31
7754.05
-684.838
-12162.1
-1056.05
8855.95
1326.91
8506.72
7943.15
7829.96
7320.43
-3548.41
1449.16
-5218.58
7898.16
5192.04
13515.3
-2028.09
-3046.31
2938.09
7594.85
2175.71
-8118.38
-1797.06
6640.19
-9605.96
-740.714
1637.5
9214.06
-3139.9
-13413.1
6993.69
4295.94
-6294.33
4491.35
-3447.84
-12051.8
-2472.31
3458.64
-3774.86
5961.07
5464.58
-3642.1
-7792.55
-122.772
7330.88
6956.17
-3014.23
-11112
6555.76
598.637
4475.64
-1476.23
-5526.32
5145.45
-2096.97
10181.3
6527.62
-11547
-2186.21
-8663.88
-4064.24
3131.47
1297.96
-6228.91
14489.2
-1056.13
-5048.33
591.723
-6788.97
10316.7
2121.98
-513.902
336.583
-7911.31
4621
-2649.37
6685.28
-9473.87
1358.35
2926.14
9042.03
-3125.59
-7900.58
11569.6
-6494.04
-819.275
5485.28
2429.58
-346.874
1316.27
11953.9
-1786.45
-4556.82
-16067.2
-4721.28
-1981.03
-10162.8
-10786.7
-12727.1
11524
1884.79
1705.91
16107.6
9623.23
-5899.75
596.483
1576.64
1631.42
5483.03
-17353.6
3099.79
636.075
3058.66
-13460.3
-14998.9
-8843.09
12770
1883.07
-7034.93
4939.06
-385.529
-3419.8
801.674
9419.64
-6278.09
748.668
8936.87
6863.48
7562.77
-6102.23
14932.3
14329.5
4945.62
-2004.27
2585.96
-1651.86
15026.6
-11305.6
-14446.1
-12181.8
-10566.1
-126.734
-130.783
-8588.41
-4194.99
980.265
-8098.64
-4159.57
5209.15
2694.82
-732.472
594.507
-2575.36
-9650.74
1476.68
13079
4098.23
-12497
-5227.15
2248.56
2613.08
4927.75
3093.28
-7283.27
2802.44
4789.09
185.941
-20107.3
4224.32
648.31
-14869.4
-14957.6
-9528.67
5680.83
-9494.65
5580.13
5920.58
9547.99
1544.19
3268.49
1957.8
-1826.91
-1067.3
-1708.58
899.329
-3790.28
39.3346
1304.51
-10011.2
-4771.71
8857.82
10444.3
-4294.1
8529.54
-3555.39
-3225.59
6617.85
-13519.2
4216.36
7503.73
-6723.43
-12359
4257.39
-9201.3
5683.18
3313.69
4033.68
2286.31
-6666.67
2402.77
9858.72
-4068.14
-3195.12
2559.2
-1212.86
6426.18
3660.78
5279.55
-2189.27
-8855.67
387.999
660.161
-4147.7
4834.68
-6691.75
-7109.39
8714.95
2859.8
-292.277
-13076.2
5019.39
1272.81
2873.46
-4057.71
3865.12
-3913.85
-640.09
-2619.98
-6649.45
5734.87
-4456.96
1582.12
5380.29
-7695.31
-4230.63
-2910.71
2958.94
13196.7
9562.76
-8810.44
10444.7
-6043.24
-5094.8
5525.32
-2303.21
-1295.53
-16798.1
4738.01
4467.65
11423.1
-265.173
12150.6
-424.609
3101.54
8552.56
3079.56
7341.35
-3372.67
-9570.3
-2945.44
-1558.97
7332.24
10850.2
-596.942
1220.68
5921.66
5582.24
4291.75
3276.31
-5191.79
-12192.8
-6575.3
3127.21
7717.46
2961.89
-492.098
-987.973
-2312.82
5752.59
-13249.2
11341.8
-7288.27
-8601.03
10508
3478.64
-3954.78
-5017.85
4525.35
-9024.9
-4456.98
-5550.4
5447.46
-2764.29
1217.41
16113.8
-8495.25
-11216.8
10237
13274.7
-10649.9
16993.1
-895.731
2468.7
2354.44
-11315.9
-5340.63
-8251.27
-2309.03
2921.65
11581.6
5722.41
6181.89
9422.88
4727.63
-8954.29
-8189.24
5257.06
-3372.26
7935.13
1364.02
-574.898
12133.8
-6979.38
5895.19
4353.81
4663.57
-9098.11
-4574.88
-3773.41
-53.085
-9635.97
-9978.83
-3890.56
1166.48
-7024.41
9607.89
1667.15
3962.27
-5163.14
-15648.1
1701.92
-6466.04
-6389.5
3738.13
1711.76
29743.1
-199.968
2305.62
1249.61
-4175.92
5545.68
-8972.57
-2556.6
12517.6
-3943.85
-3116.8
-10990.7
-6740.25
-3292.88
1371.15
6561.73
-6426.39
8715.38
-1483.51
-5355.8
-8347.5
-4326.04
-2233.31
10065
172.052
8619.28
5100.5
-4155.96
-1837.52
-3548.29
-5006.53
-3949.32
-6344.66
-1866.58
-1582.12
-3996.59
-4456.3
1514.57
-15319.8
519.977
7758.41
10358.6
8420.29
5159.8
994.1
-2723.89
-1271.93
9267.88
4604.82
6083.45
5496.65
-5284.68
721.578
-8198.05
-2465.94
-2552.08
7137.11
-8214.14
7037.56
-11734
7799.56
1164.55
-3148.61
-766.345
-4347
10804.7
5382.93
837.375
-822.26
3104.22
-3048.19
-261.191
-1251.32
6009.84
2983.87
9325.82
2048.67
-4994.5
8998.36
2464.91
-5644.38
10395.5
2232.73
1973.11
4404.31
4395.96
3305.6
3022.7
-568.918
-1974.89
11228.7
-2686.48
-175.816
-8191.82
4172.73
10042
2074.77
-20208.5
5485.56
-8755.7
5901.03
12029.7
-5790.22
-6570.95
2115.57
3450.43
-151.123
-11500.8
-1282.22
5023.94
6009.84
-14972.8
16721.4
12661.8
2986.12
5323.67
6984.34
2228.35
-5426.12
9924.08
1882.92
9409.13
-12599.8
-3481.75
-9270.63
-15592
754.727
-3087.64
-3238.89
-4572.26
1154
1253
-3346.16
5793.81
453.081
4401.78
1078.09
9642.05
4848.32
-5383.94
-1017.85
-16.6117
497.239
-13312.9
1251.63
-7189.86
7080.4
22281.9
7264.72
-2072.34
8491.18
-10253
13613.5
-3437.77
-5634.99
-743.486
462.154
2323.38
-27567.3
239.955
-5401.23
2377.88
2249.31
2757.4
-11588.2
1272.23
-2854.2
-8205.66
-5159.7
666.539
2206.17
1789.21
-9282.87
11206.5
-4276.5
-7442.68
2901.51
13691.3
4582.94
566.942
-4612.08
8590.52
-9104.77
5956.11
2448.68
-5638.46
6280.34
6722.56
-8368.06
606.181
-4176.19
2506.04
-10801.2
-4146.25
594.616
-4454.96
501.565
-37.4447
-1122.76
1258.05
-18892.7
2739.66
2438.29
-545.353
-294.638
-8552.33
-1040.9
9012.25
291.88
-370.487
-4172.58
1736.99
-2879.62
-1115.98
-3773.85
-5213.33
-5487.62
-5661.29
-1336.9
-2004.5
-6294.19
1022.9
903.87
-924.033
-7698.82
-4203.07
11015.5
5289.97
10778
-392.425
-4007.17
9790.01
14702.4
10383.6
6408.99
6054.86
9083.09
6573.51
7403.09
-354.536
-12626.4
-4497.64
-7327.33
-17909.4
6214.59
-10157
-1335.99
2579.54
-2012.09
9519.69
10480.3
661.636
-11458.7
-6636.91
-18156.2
15901.9
-8751.24
1160.46
2736.1
16160.3
-10151
-6114.92
-492.656
5782.65
-17809.2
2716.15
-977.919
1298.67
3698.85
-5500.99
8599.85
1942.05
-13171.6
5615.16
1772.26
10658.2
-5477.16
-12150
-12433.5
-301.343
11230
4743.11
4390.84
4017.35
1339.82
-2679.75
-1017.26
-17893.2
-6927.99
-8818.51
672.84
-3267.29
-2236.98
-11509.1
8681.09
-15611.8
-11435.7
-10444.5
13093.9
8255.96
1137.04
-2724.54
-15434.7
-9845.43
-8180.45
376.3
3943.35
5075.01
10521.2
5734.96
9357.32
-261.69
143.921
-7230.99
9225.36
-3691.56
-10464.3
-11748
-261.291
-5559.93
-644.629
1925.83
7059.77
5190.2
6178.56
15293
6029.93
-2051.68
-4904.69
8660.32
-974.145
-2252.4
2930.17
-1779.66
-283.694
-8692.14
4189.5
16530.8
-2484.38
-9599.9
-3702.18
-5078.94
-786.854
-6499.46
7960.4
1542.07
16739.1
435.961
3545.98
-6431.4
-9138.82
637.835
-4231.71
-13424
-4358.85
-578.625
3641.7
-1063.51
-973.394
6177.97
173.741
5431.25
10642.1
13904.7
-1885.66
-3465.67
-7108.84
3916.01
-1985.28
-13824
6821.56
7575.97
-9958.96
-148.915
-519.585
4381.72
6395.27
11006.3
-9765.91
7127.14
11061.1
7309.58
5978.37
2638.66
4412.68
5995.31
-1765.27
5748.89
-11431.7
1129.87
5437.35
3681.79
13012.4
-1106.87
-5357.06
-112.237
-11713
-251.981
-3239.74
5271.83
-9386.6
8137.52
13000.7
544.596
9130.18
2115.43
-6282.44
7780.61
-2209.02
312.175
6022.39
11251.2
-4841.58
-17437.4
-5148.66
-9152.83
4040.28
2395.44
1166.52
-3551.32
-4205.11
-3183.15
5588.33
7343.54
1522.16
13278
-2770.94
-2504.46
3304.41
-697.987
10572.1
-7162.04
-12483.2
-9314.6
-1322.62
1815.28
-7273.59
2820.79
2184.44
5214.55
767.146
-5012.39
-1804.51
-8459.37
1426.93
7152.27
-5147.22
-6227.72
-9136.09
-8508.11
-13724.7
-11747.8
-5038.39
-3885.26
12874.3
10346.6
-11931.9
-7628.57
1278.46
-10044.2
-8910.51
9912.16
7450.76
930.841
1738.01
-2994.85
-5180.94
-1554.81
12529.3
-11837.8
207.025
2689.72
-10963.5
3885.55
-1994.63
-463.161
13841.9
-1916.69
-840.341
-3550.55
-3185.23
-4711.84
500.265
-675.712
3270.23
4518.85
3901.66
-6583.16
-5968.87
-5461.32
-9767.69
-12994.4
45.1368
-7457.49
16536
6483.39
-10474.3
-4965.09
-7010.3
6174.36
3213.9
12995.4
-15099.5
3166.84
-10123.9
-6561.87
2766.72
-19609.2
2797.91
5747.77
-1906.77
15460.7
-3262.01
40.7191
-1106.68
9044.05
5876.58
-11092.1
-66.7457
-6751.8
-20619.2
6901.47
634.275
-4916.46
-11031.3
8280.34
13005.1
12308.2
-4307.02
8424.57
8810.13
-8294.03
9680.7
6630.98
-3843
5543.57
14145.4
7083.17
2040.35
-2919.81
5434.68
-6996.82
8747.36
5266.66
464.013
-8281
-7224.11
5552.97
-5587.2
2463.45
-11155.1
2926.41
1782.89
3521.33
-10787
9735.36
-9067.77
4317.39
-1555.56
6618.33
6464.99
9421.43
5714.76
2477.55
7290.71
4500.31
3151.14
-9114.83
-5261.71
-11265.6
-2926.76
-3310.81
7004
3930.15
-2914.27
-3551.53
-13387.6
-7092.82
10161.5
-4124.61
-1362.48
3504.35
-8363.02
15095.2
-4306.79
4045.19
5382.88
-14780.9
-1482.55
295.878
-69.1085
13309.2
5739.22
-8978.95
8936.27
-1764.53
7105.24
9994.65
13251.1
1943.94
-1960.08
3736.76
-2266.15
12942.9
-1710.9
8262.43
2665.2
1415.47
5367.21
-1363.12
-1962.59
8346.85
5489.34
5776.15
-5272.77
-8621.83
10247.5
5334.48
-98.6789
4493.86
-3640.5
8500
10368.8
991.474
11076.7
6315.94
4988.82
6767.43
16094.7
12828.9
19556.1
187.097
932.564
-147.718
6458.14
-2112.35
-1758.24
462.305
-3099.53
11657.7
-3656.51
-2513.89
-8289.68
6328.14
-5117.83
-4691.4
2326.16
4428.47
-2452.76
-10153.4
-14632.6
-5511.73
-17483.2
-6237.92
10144.2
2018.51
1249.71
2406.8
-4191.84
-11180.2
-1123.52
16370.1
-3467.74
-5607.97
1127.76
1380.37
16393.6
8433.28
2389.89
-11269
-2573.48
3274.73
4099.23
-4155.06
-6798.33
1495.63
4462.91
-757.719
-863.135
-3729.39
-9585.48
-713.937
8641.28
-2091.18
-3828.02
-9055.13
-7760.59
-6353.91
8340.34
1018.59
-5709.48
-141.518
-4475.52
11233.1
-11407.9
-2455.47
1239.03
-633.567
-9784.33
-7220.6
152.075
-2041.41
-11906.3
-2547.27
8747.04
10592.3
-482.001
2037.93
6852.35
9008.75
12935.3
-8461.38
-8705.96
-5566.57
5175.68
3456.88
-9196.59
-12873.6
-4743.3
9788.14
11878.5
-13684.7
-145.314
366.768
10978.5
1084.02
4536.88
4780.28
9355.68
-5399.93
-5040.82
-3458.97
4740.19
3281.92
-3567.79
-2592.91
4309.07
-11323.2
8281.03
-7829.83
-1724.91
-13041.4
17172.4
8892.88
1421
-5232.52
-6929.77
-4488.34
-3502.94
1900.45
9449.13
-9751.01
-749.413
17851.3
4438.47
-68.1053
10870.8
2802.23
-5936.41
5157.79
14165.6
-9890.08
-10676.2
-1073.03
-3935.94
2018.94
-5288.77
9932.1
1214.09
-6786.78
6915.73
-8971.9
-10051.9
7454.01
5314.51
-9627.36
2561.16
7728.45
-6265.27
7161.28
-4910.36
4978.58
3990.46
-8526.4
10829.4
-11795.1
-17516.1
1827.43
97.4487
-13049.2
1863.88
-12423.4
-2744.9
18808.3
7438.72
-8084.46
-2268.97
-7147.11
-12615
-2227.8
-698.27
13839.3
-5869.25
-1457.24
13168
-3513.86
3446
-6637.27
15295.5
1825.34
-6037.9
13543.3
-13865.4
-2380.05
3426.98
192.124
-10622
-12244.9
-7005.24
10306.3
3039.61
-7892.65
10229.9
4017.61
6016.1
-3727.29
-14971.6
5847.99
6534.34
-1232.41
8547.64
10761.1
1339.84
-4979.63
-6463.11
-9277.5
-4813.25
-22729.3
-11511.5
9081.54
-3694.57
4588.78
1327
2108.48
-11705.5
554.315
2058.62
-2909.95
9107.26
-9479.11
-2259.54
-6280.6
4480.31
6931.22
-5739.6
8816.92
-4768.97
17955.2
1310.62
-421.835
945.682
-4103.23
7082.27
-8580.68
-10486.2
1197.16
3007.82
-5497.97
7764.04
1584.42
14211.9
14314
7476.95
2496.58
-6896.72
8442.05
-3619.49
-8109.28
726.108
19111.1
-3067.76
-1916.09
3385.98
-6474.48
6956.83
-10967.8
-11505.7
-5910.68
9816.23
6467.42
-1056.67
-23495.8
4284.52
5949.49
6554.32
-12207.4
-4292.96
4268.6
-1338.96
6637.74
952.754
-8526.42
-1396.35
-15645
-11644
-1519.57
4505.34
469.943
-5030.74
-8563.74
-3396.83
-1606.2
-11894.1
-5017.57
3403.51
-12500.9
-3696.87
-3435.94
6842.73
4601.63
-710.958
-4048.9
5734.91
5159.95
7174.04
10163.6
-19876.8
594.978
5869.51
13939.7
8305.25
3234.3
6108.06
15659.6
1900.93
6825.76
807.896
2505.06
-2507.55
7061.69
-3884.54
7794.15
4294
4815.68
-6878.63
-10236.6
2868.92
3150.16
-14062.5
-17003.7
8568.86
268.077
1064.37
-12582.6
-335.754
-600.786
-6122.72
-4263.72
2464.42
-3563.75
-1282.6
-14058.3
1194.62
-578.085
6228.76
1505.5
-6092.08
-4429.06
-11602.9
-8414.64
5495.32
-4474.47
6530.69
-13014.5
-721.03
-423.384
-10172.8
6482.02
1478.21
8931.75
-8637.99
-14408
-2840.35
-4467.25
6439.56
-8575.75
-4570.95
-11560.7
-197.984
3816.99
-2027.36
22976.7
17635.8
4831.66
-4689.63
-6944.21
10779.1
13095
-7742.69
-2147.21
-5748.07
-5304.43
-5016.38
4520.62
-380.279
-1997.39
4396.61
-12318.8
13688.6
-11287.3
7508.64
8892.94
-2871.9
-7087.28
-10469.5
5482.69
-1475.47
-26206.6
-6540.16
-6555.58
-1361.05
3476.56
-12623.8
9476.63
-4500.79
8030.17
-9287.16
-278.365
1946.14
3055.08
-1740.96
-8726.56
7900.61
1981.5
2235.86
-7106.28
-9957.49
-12751
6657.87
-1359.06
4898.4
-15821.8
-772.821
8417.14
-1763.29
-1247.46
-2127.58
-4244.68
3422.3
10116.1
6864.09
13542.6
-6308.15
-4995.34
4355.68
5178.34
5742.7
5660.85
-5.48484
-3165.87
-5638.35
4226.07
19749.5
7363.98
4017.17
10935.2
-5120.05
4581.52
3020.32
-1204.39
6109.54
-5752.54
-8683.18
18718.1
-7061.77
-1854.01
-8772.32
-9571.71
15892.8
-3109.11
-9478.15
-12783.4
-13824.5
4314.68
6789.64
-2778.61
-7254.93
-871.208
-2733.99
-3886.57
-5807.94
2086.17
10199.3
2593.65
-1809.33
12929.8
3383.34
-3153.08
1859.78
-16139.5
1049.86
-9518.89
-14811.1
-7949.75
-501.247
-667.207
-5520
8353.07
-4871.19
-12990.3
-14687.4
3603.52
-6313.63
-1338.98
-12814.9
1571.49
-7689.33
-2344.71
4925.19
13350.9
1090.4
-3547.01
4084.17
-17116.4
-14102.7
-10934.7
-6160.4
3499.44
2033.51
6344.57
-2993.26
1144.15
-14217
-2711.34
-2247.16
-3491.74
-1308.04
-3677.92
-9396.89
-8606.56
9941.59
-13626.4
-9281.37
-1634.11
-463.113
-4820.21
-1193.18
2593.11
-2397.28
1530.17
3272.29
-3223.66
8241.82
11611.3
157.246
681.498
6576.23
9321.24
-7230.82
-8362.09
11115.1
-2846.44
2543.15
3226.42
-1757.26
-4383.51
8504.14
13013.9
11341.7
6396.3
-6448.87
-3040.42
-12060.9
8252.93
175.173
-8324.98
-9902
1202.78
-8647.71
1175.82
1565.17
-2112.33
-6353.55
-3882.62
-2113.88
1293.21
-12898.5
70.0639
465.522
-12803.8
549.008
-8826.51
-4635.26
17976.4
883.325
-7493.6
4427.26
3944.39
-626.943
-6794.01
10299.1
-1913.03
3166.31
5412.3
-10124
7917.25
-13745
-13678.7
-6643.91
-4814.99
505.113
-4467.32
858.737
6102.14
-609.031
-4148.25
-3905.82
5405.8
5386.2
-3528.09
-7534.18
8579.92
-3021.54
-3060.84
3794.91
6789.16
7366.72
-13558.8
-6411.17
2302.3
832.621
-6208.89
6083.46
17069
123.258
-22242.1
-15285.1
9670.13
1453.81
-6846.16
-4733.32
-16284.1
1508.18
-25197.4
7841.72
6333.32
-11634.7
420.279
-6330.14
-10450.3
11025.1
9347.14
11638.4
4419.01
-3308.5
-5180.69
-4319.39
-1600.27
14997.6
5836.16
3691.61
-7685.94
-6689.1
8555.92
8801.05
-3174.16
-4948.64
3538.48
1796.94
-11754.1
11094
-13110.5
9813.05
3192.18
16688.5
-4256.85
4721.7
2658.49
19966.6
9176.98
-12914.9
-4239.87
6290.98
-1144.98
11969.4
-9696.81
-9497.58
-8199.19
2215.8
-5854.75
-7506.38
-7738.88
-12730.4
-10110.7
-13877.8
9870.3
-6880.55
-4117.23
6732.53
3171.51
2800.73
-4319.71
-4844.43
4735.44
-1671.95
3465.19
-6495.28
-6429.27
8939.85
-8617.39
11960.1
1782.29
-2873.82
5528.29
4390.15
9980.44
8421.91
-4464.17
-8609.79
5072.67
-905.994
-1720.77
-4979.84
-7911.45
-14432.8
9174.28
4516.98
-7178.1
-1839.07
-3660.41
-6331.49
-17927.7
6436.17
4137.25
-3499.31
3607.67
-15867
6129.52
4518.91
-239.063
1877.49
-8227.92
-13778.8
-6306.89
-9960.81
-280.414
8356.16
-3527.05
5832.05
-4787.87
12310.3
5566.54
-7195.77
4253.5
3956.48
14595.6
7483.99
16378.8
10071.7
7467.25
-9740.88
12022
266.534
1247.46
-10143
-5582.48
1675.77
2671.38
-8214.59
5148.04
-703.98
-423.895
-4340.96
-10233.6
5209.13
6594.22
733.274
-543.671
-9197.64
627.202
-7365.19
1819.64
-4500.51
-9171.35
-10467.9
2142.39
1835.42
2208.98
-1260.97
-883.081
-11399.2
-1894.89
-6547.12
-3408.07
-4029.4
-7804.91
-4886.24
2931.52
8703.52
-879.932
426.87
5583.9
15510.5
20340.2
4815.65
-1632.44
3275.8
-16431.5
4694.03
2776.21
1646.59
-975.225
-2606.44
2593.66
4747.38
-7808.01
4275.31
-5829.22
2664.84
-4988.82
-942.78
7767.49
-2403.65
-3194.02
-2315.01
6628.73
5099.85
-2390.3
-5043.16
1370.8
11253.9
4591.57
-3375.81
-4196.41
-3415.13
8179.8
1304.88
-495.156
8982.03
17082.5
-2015.92
-7055.58
-12634.1
-796.788
3376.17
2491.9
-13071.5
-320.016
-7919.04
3912.49
5632.63
-1621.27
-1042.74
-2653
-895.622
-3905.43
-1833.71
2918.26
565.32
-18200.1
-2028.37
1456.69
3974.2
16979.7
-4890.13
17556.4
2045.02
2875.09
14705.5
-1724.87
-2761.97
271.189
1171.05
4000.73
-6180.07
-1933.93
-1563.01
-1895.4
10172.3
-1164.25
9218.99
-348.748
3580.96
1722.58
-330.879
-762.512
-2470.59
-3071.26
10044.8
9174.05
-4019.39
-4241.94
2721.53
26184
-4869.48
-4967.14
-641.045
-1930.89
744.264
-2485.15
6016.98
-5119.64
-3228.53
9589.02
2308.91
1297.77
21283.6
7387.65
3422.25
2622.29
-9823.9
2540.9
15969.6
1961.33
14576.4
-1366.3
-14691.1
-937.635
-908.216
-11518.7
9417.88
-5093.28
3539.73
-7364.84
-5741.84
5989.3
10284.5
-6830.76
-707.788
-7062.87
3871.01
4981.5
-7159.07
2828.13
-1220.25
-1795.76
2543.6
4741.26
80.3902
-627.647
-7960.38
8509.72
367.985
3525.4
10836
-16430.8
-8375.1
-2307.83
-426.269
11595.3
6006.98
10825.3
-9202.01
-1911.71
4877.64
6018.38
-4634.02
2743.37
5839.11
-3255.19
-4925.85
11334.7
-860.323
-11937.7
-5886.86
-3052.3
826.639
-15750.5
-771.772
-1614.63
-7243.29
-11715.8
8523.39
-10455.3
-6573.14
-5815.52
-16798.7
746.734
-5151.6
-13730.2
-20671.7
-11785.7
-7406.51
-11436
-456.337
2315.08
-6209.6
11504.1
-5997.21
-1754.29
2749.4
2985.43
2839.09
9755.77
-8518.62
-1552.03
587.109
4245.96
-3286.6
-401.012
12152.4
10347.6
-5021.56
12648.1
-8305.22
639.478
-6663.82
-9698.45
7213.13
7754.62
-1503.94
5900.97
-880.043
-4424.21
-6285.23
-528.241
-205.486
12833.5
932.668
-1066.61
383.742
962.981
-896.675
-8061.93
15126.3
-7937.57
-3130.71
9909.61
1300.44
4729.12
-12950.1
6450.13
-4984.89
-2694.22
16248.2
9458.5
-3362.05
2938.53
-1816.15
-1939.49
10495.1
-3907.09
3005.55
-8663.57
312.265
5728.31
-9484.61
5080.68
6624.13
-5598.23
7412.71
2400.73
-492.13
4804.05
13104
-1374.68
-1544.44
3534
5586.3
5195.79
-10310
11180
-1591.06
4866.92
-976.361
-7308.32
7538.41
-6792.03
506.113
-5674.03
8365.6
7908.74
2169.05
-1489.63
14679.3
8201.29
3779.94
5582.95
-1773.63
4096.2
1263.05
-13552.1
-2069.5
6394.96
798.504
-3152.95
-11885
8586.57
4853.84
-5514.45
5319.45
3682.83
-6220.31
8747.16
-465.788
30.8923
10529.7
-39.2225
2383.93
-3701.18
-8986.13
-800.203
-3881.79
-10463.5
-1903
6085.84
3285.23
19097.7
-3589.9
10616.2
7595.92
-11243.9
-630.733
9315.88
-5782.76
-6979.76
4545.67
4312.59
7441.17
-2561.73
2463.94
-3576.55
-9589.82
9030.71
2680.41
7486.77
5546.28
1775.46
280.927
-11144.1
-8695.64
-8992.5
244.254
647.624
-3539.44
-9992.6
-8298.44
1494.55
-1562
-11620.4
-11457.5
-542.32
11001.3
-201.5
-3331.9
-89.7335
5272.21
4539.69
-1605.55
2906.67
-5981.22
3240.52
4007.54
4102.34
-12758.1
4655.38
-13964.1
-2946.14
15568.6
-10487.8
-619.851
-3020.88
-5481.2
1223.47
-1394.1
3418.36
-8136.68
5964.3
1299.63
12348.6
-967.919
9032.9
11376.2
3575.68
-4925.18
-910.459
2965.76
-8897.58
126.77
-2686.99
6253.49
5540.33
2628.07
-8102.69
-4486.46
3619.42
-3108.08
2822.79
-4133.48
6162.32
-9019.59
-14129.9
-204.156
-2380.7
12121.6
13546
7715.95
9693.65
-6094.23
14321.4
4173.29
2163.5
-848.445
-8114.87
-1732.98
-3441.72
-14005.9
10464.4
6515.88
-10463.9
9792.74
-11513.7
86.8905
-3771
9354.16
1656.43
-4241.35
-7743.53
-5166.35
-2672.41
1572.03
1597.77
-2546.46
-3293.28
2491.22
4288.53
11033.5
1553.22
3822.82
-9610.65
-2939.52
1797.4
56.4833
-8020.1
11064.4
-13334.5
-1680.68
6425.9
-6448.81
3601.23
761.122
19762.2
9016.51
-7442.05
-1693.82
-5821.22
-3206.79
-259.952
5545.51
1601.89
9555.44
7471.08
-1133.45
-3606.85
-6503.4
-6248.73
-7156.18
7884.23
7665.52
17428
-4852.96
2144.34
13045.3
-16666.6
-4889.97
-539.83
13821.5
12111.9
423.574
4610.41
-2475.23
-7615.57
6117.36
-8135.24
9770.36
-6253.39
8752.99
5119.56
-10490.7
-4488.77
-3580.91
9108.98
-2112.68
-7377.23
8923.03
9692.72
13687.7
5240.62
-153.4
3004.09
-3881.11
1713.88
2051.24
-7611.73
-8886.23
-3554.73
845.833
5877.31
3303.65
-6787.34
-754.763
1464.29
3699.35
7723.09
-6331.41
1258.43
-803.939
-2736.73
-4005.96
3650.71
-1650.47
12341.1
4371.79
-5967.04
-8685.22
-6334.25
891.528
3092.11
7187.04
12638.5
2670.74
-108.889
-4484.52
-2301.56
2090.1
1768.35
-2658.93
4979.92
16568.8
-2040.51
5789.02
882.449
2087.42
3101.03
-11286.5
-3016.57
464.946
-6771.54
6307.6
-1577.72
-1361.08
-5969.41
6093.07
-7212.83
5545.29
-12488.7
-3046.63
2325.57
-5971.08
1935.88
5815.4
-7131
413.975
-3194.29
7876.19
4976.55
8187.47
6607.21
2258.72
-5078.87
-1586.38
-7967.96
-4435.13
-4076
-3480.75
-4098.24
-9123.11
-5039.76
5702.42
18134.2
5193.38
-2200.02
-13983.1
-13227.7
11183.9
-964.489
-2435.65
-1779.72
-2952.46
-2747.97
-7141.52
-494.721
-13842.7
3709.79
8512.18
11215
-4046.46
-268.308
4462.76
-274.31
13106.9
-8556.93
331.469
-2007.21
-2239.41
8913.77
658.957
3701.68
-809.177
343.023
6317.74
-1778.38
-10636.8
-12261.5
6208.21
-5485.01
6377.31
1320.3
692.898
-12195.2
-981.047
-11486.7
-7243.76
8731.96
2152.4
1430.41
11075.8
9587.31
-12616.9
5450.1
2522.44
7582.64
-4942.73
-5530.71
11313.5
3733.84
1030.93
-5896.24
-2185.99
-2856.73
-2021.57
5552.11
-3374.87
-1893.1
5393.88
-6777.39
-6569.02
6882.74
-2852.92
4903.21
4383.7
2795.33
-3006.03
3327.84
1543.34
2785.33
1910.1
32.8748
-6547.67
-3029.92
379.56
-684.472
1887.25
-8318.32
13308.5
-2654.3
-6693.49
-9993.06
-2505.15
1888.77
10733.3
-12184.8
6364.42
-1887.13
6394.6
-1347.89
4647.51
507.374
-2043.82
-12453
13161.5
7802.42
15542.4
8453.39
-4508.17
4736.3
-5133.3
1427.25
-1821.29
-6764.03
-4298.18
4394.63
5802.83
-10106.2
3932.55
-3745.38
-2552.62
-3701.69
1489.8
1841.02
-7635.58
-237.002
-5591.02
2467.88
-123.302
-1052.83
10127.4
12714.8
-8523.96
-5507.28
-13239.6
237.767
11312
-1785.78
-6905.03
3058.76
-11329.3
6753.69
17775.4
-10645.9
3634.66
3010.51
-9132.73
228.451
2145.2
17154.7
1216.79
6219.81
-6335.18
18000.3
6928.97
14095.6
12736.5
-10159.2
-6498.6
8698.55
-1045.56
-1103.43
667.532
-10703
-594.74
-14799.1
1154.31
744.717
-1502.13
1126.03
7517.28
-4296
714.634
-7040.86
5202.8
-10721.3
-4560.34
1512.07
2607.11
-4588.6
7322.32
4930.35
-2200.7
-368.255
11011.6
-4973.88
1140.59
7579.85
-241.38
-213.582
-8496.74
-1684.34
8221.19
-13808.2
2934.2
-825.62
-12875.8
2681.33
5528.83
10009.6
3387.89
-7106.8
-4933.05
5106.24
13213.1
-8113.15
-2717.88
-9616.98
7955.73
-860.829
-9404.47
3755.88
-1098.68
10809
-6184.05
15245.5
-2717.55
2002.97
1602.23
-3988.5
9901.58
-4199.39
-2611.13
-3066.43
11246.9
7896.06
1282.71
222.449
-11610.7
-5891.09
1877.75
1360.7
-14663.4
2374.55
3985.59
-5672.77
6022.98
-2369.48
-5172.55
1840.2
-5838.31
-8735.02
5657.86
6055.51
9387.35
8464.63
4088.79
3523.73
-2696.72
-7820.4
8740.9
7170.91
4228.44
-174.936
-662.204
61.0096
-6267.79
-7988.36
2709.6
3381.61
6972.78
9772.47
-9534.17
6745.12
-6008.78
7906.69
-16330.3
-11853.2
-9513
-4612.38
5222.98
11150.1
-4786.29
10909.1
-1516.67